<event>
 5   0  0.1197974E+08  0.9118800E+02  0.7546771E-02  0.1180000E+00
      -11   -1    0    0    0    0  0.00000000000E+00  0.00000000000E+00  0.34996269501E-01  0.35000000000E-01  0.51099999109E-03 0.  1.
       11   -1    0    0    0    0 -0.00000000000E+00 -0.00000000000E+00 -0.34996269501E-01  0.35000000000E-01  0.51099999109E-03 0. -1.
       22    1    1    2    0    0 -0.24452221683E-02  0.68680303765E-02 -0.34232309802E-01  0.34999999815E-01  0.00000000000E+00 0. -1.
       22    1    1    2    0    0  0.24452223934E-02 -0.68680249832E-02  0.34232258276E-01  0.34999948377E-01  0.00000000000E+00 0.  1.
       22    1    1    2    0    0 -0.22508475314E-09 -0.53932562223E-08  0.51525307972E-07  0.51807289424E-07  0.00000000000E+00 0.  1.
</event>
<event>
 5   0  0.1197974E+08  0.9118800E+02  0.7546771E-02  0.1180000E+00
      -11   -1    0    0    0    0  0.00000000000E+00  0.00000000000E+00  0.34996269501E-01  0.35000000000E-01  0.51099999109E-03 0.  1.
       11   -1    0    0    0    0 -0.00000000000E+00 -0.00000000000E+00 -0.34996269501E-01  0.35000000000E-01  0.51099999109E-03 0. -1.
       22    1    1    2    0    0 -0.17181630893E-05 -0.60771890164E-06  0.47248292278E-04  0.47283427645E-04  0.00000000000E+00 0.  1.
       22    1    1    2    0    0  0.19798269923E-02 -0.11126151828E-02 -0.34926213374E-01  0.34999971545E-01  0.00000000000E+00 0. -1.
       22    1    1    2    0    0 -0.19781088292E-02  0.11132229017E-02  0.34878965082E-01  0.34952745028E-01  0.00000000000E+00 0.  1.
</event>
<event>
 5   0  0.1197974E+08  0.9118800E+02  0.7546771E-02  0.1180000E+00
      -11   -1    0    0    0    0  0.00000000000E+00  0.00000000000E+00  0.34996269501E-01  0.35000000000E-01  0.51099999109E-03 0. -1.
       11   -1    0    0    0    0 -0.00000000000E+00 -0.00000000000E+00 -0.34996269501E-01  0.35000000000E-01  0.51099999109E-03 0.  1.
       22    1    1    2    0    0 -0.11057082935E-02  0.52485434770E-03 -0.34889314829E-01  0.34910777021E-01  0.00000000000E+00 0.  1.
       22    1    1    2    0    0 -0.44716188171E-04 -0.66999429421E-04 -0.70767044300E-04  0.10722143250E-03  0.00000000000E+00 0. -1.
       22    1    1    2    0    0  0.11504244817E-02 -0.45785491828E-03  0.34960081874E-01  0.34982001547E-01  0.00000000000E+00 0. -1.
</event>
<event>
 5   0  0.1197974E+08  0.9118800E+02  0.7546771E-02  0.1180000E+00
      -11   -1    0    0    0    0  0.00000000000E+00  0.00000000000E+00  0.34996269501E-01  0.35000000000E-01  0.51099999109E-03 0. -1.
       11   -1    0    0    0    0 -0.00000000000E+00 -0.00000000000E+00 -0.34996269501E-01  0.35000000000E-01  0.51099999109E-03 0. -1.
       22    1    1    2    0    0 -0.12554149384E-02 -0.28001577372E-02  0.32872377226E-03  0.30862613855E-02  0.00000000000E+00 0.  1.
       22    1    1    2    0    0  0.69703756920E-03  0.18999568526E-02 -0.33582334717E-01  0.33643259391E-01  0.00000000000E+00 0. -1.
       22    1    1    2    0    0  0.55837736923E-03  0.90020088466E-03  0.33253610945E-01  0.33270479224E-01  0.00000000000E+00 0. -1.
</event>
<event>
 5   0  0.1197974E+08  0.9118800E+02  0.7546771E-02  0.1180000E+00
      -11   -1    0    0    0    0  0.00000000000E+00  0.00000000000E+00  0.34996269501E-01  0.35000000000E-01  0.51099999109E-03 0. -1.
       11   -1    0    0    0    0 -0.00000000000E+00 -0.00000000000E+00 -0.34996269501E-01  0.35000000000E-01  0.51099999109E-03 0.  1.
       22    1    1    2    0    0 -0.13054919381E-02 -0.16942946139E-06  0.34868119313E-01  0.34892550117E-01  0.00000000000E+00 0. -1.
       22    1    1    2    0    0  0.64876858006E-04  0.15172226391E-04  0.98449623875E-04  0.11887611871E-03  0.00000000000E+00 0. -1.
       22    1    1    2    0    0  0.12406150801E-02 -0.15002796929E-04 -0.34966568937E-01  0.34988573765E-01  0.00000000000E+00 0.  1.
</event>
<event>
 5   0  0.1197974E+08  0.9118800E+02  0.7546771E-02  0.1180000E+00
      -11   -1    0    0    0    0  0.00000000000E+00  0.00000000000E+00  0.34996269501E-01  0.35000000000E-01  0.51099999109E-03 0.  1.
       11   -1    0    0    0    0 -0.00000000000E+00 -0.00000000000E+00 -0.34996269501E-01  0.35000000000E-01  0.51099999109E-03 0.  1.
       22    1    1    2    0    0  0.26368511161E-04  0.14213670726E-04  0.33067214248E-01  0.33066512495E-01  0.00000000000E+00 0.  1.
       22    1    1    2    0    0 -0.26366754211E-04 -0.14212723660E-04  0.19333585232E-02  0.19335905426E-02  0.00000000000E+00 0. -1.
       22    1    1    2    0    0 -0.17569499585E-08 -0.94706553738E-09 -0.35000572771E-01  0.34999896963E-01  0.00000000000E+00 0.  1.
</event>
<event>
 5   0  0.1197974E+08  0.9118800E+02  0.7546771E-02  0.1180000E+00
      -11   -1    0    0    0    0  0.00000000000E+00  0.00000000000E+00  0.34996269501E-01  0.35000000000E-01  0.51099999109E-03 0. -1.
       11   -1    0    0    0    0 -0.00000000000E+00 -0.00000000000E+00 -0.34996269501E-01  0.35000000000E-01  0.51099999109E-03 0.  1.
       22    1    1    2    0    0  0.13302590730E-04 -0.12066697810E-04  0.79297897972E-04  0.81306338861E-04  0.00000000000E+00 0. -1.
       22    1    1    2    0    0  0.26440230316E-02  0.75398249959E-02 -0.34074509596E-01  0.34998743162E-01  0.00000000000E+00 0.  1.
       22    1    1    2    0    0 -0.26573256223E-02 -0.75277582980E-02  0.33995211698E-01  0.34919950499E-01  0.00000000000E+00 0. -1.
</event>
<event>
 5   0  0.1197974E+08  0.9118800E+02  0.7546771E-02  0.1180000E+00
      -11   -1    0    0    0    0  0.00000000000E+00  0.00000000000E+00  0.34996269501E-01  0.35000000000E-01  0.51099999109E-03 0. -1.
       11   -1    0    0    0    0 -0.00000000000E+00 -0.00000000000E+00 -0.34996269501E-01  0.35000000000E-01  0.51099999109E-03 0. -1.
       22    1    1    2    0    0  0.15410156188E-07 -0.12885693874E-06  0.65475322516E-06  0.66749035156E-06  0.00000000000E+00 0. -1.
       22    1    1    2    0    0  0.84279821536E-03 -0.34559826808E-03 -0.34988137160E-01  0.34999992699E-01  0.00000000000E+00 0. -1.
       22    1    1    2    0    0 -0.84281362552E-03  0.34572712501E-03  0.34987482407E-01  0.34999339811E-01  0.00000000000E+00 0. -1.
</event>
<event>
 5   0  0.1197974E+08  0.9118800E+02  0.7546771E-02  0.1180000E+00
      -11   -1    0    0    0    0  0.00000000000E+00  0.00000000000E+00  0.34996269501E-01  0.35000000000E-01  0.51099999109E-03 0.  1.
       11   -1    0    0    0    0 -0.00000000000E+00 -0.00000000000E+00 -0.34996269501E-01  0.35000000000E-01  0.51099999109E-03 0. -1.
       22    1    1    2    0    0  0.11879018852E-01  0.12226402696E-01 -0.28285530226E-01  0.33025251429E-01  0.00000000000E+00 0. -1.
       22    1    1    2    0    0 -0.87900377506E-04 -0.10264019283E-03 -0.21509974217E-02  0.21552381292E-02  0.00000000000E+00 0.  1.
       22    1    1    2    0    0 -0.11791118475E-01 -0.12123762503E-01  0.30436527648E-01  0.34819510442E-01  0.00000000000E+00 0.  1.
</event>
<event>
 5   0  0.1197974E+08  0.9118800E+02  0.7546771E-02  0.1180000E+00
      -11   -1    0    0    0    0  0.00000000000E+00  0.00000000000E+00  0.34996269501E-01  0.35000000000E-01  0.51099999109E-03 0. -1.
       11   -1    0    0    0    0 -0.00000000000E+00 -0.00000000000E+00 -0.34996269501E-01  0.35000000000E-01  0.51099999109E-03 0. -1.
       22    1    1    2    0    0 -0.38585932219E-03  0.23609616537E-03  0.34994756040E-01  0.34997679625E-01  0.00000000000E+00 0. -1.
       22    1    1    2    0    0  0.49941756724E-06 -0.69905940628E-06  0.22462281458E-05  0.24049205482E-05  0.00000000000E+00 0. -1.
       22    1    1    2    0    0  0.38535990462E-03 -0.23539710597E-03 -0.34997002268E-01  0.34999915455E-01  0.00000000000E+00 0. -1.
</event>
