<event>
 5   0  0.1554040E+07  0.9118800E+02  0.7546771E-02  0.1180000E+00
      -11   -1    0    0    0    0  0.00000000000E+00  0.00000000000E+00  0.34996269501E-01  0.35000000000E-01  0.51099999109E-03 0.  1.
       11   -1    0    0    0    0 -0.00000000000E+00 -0.00000000000E+00 -0.34996269501E-01  0.35000000000E-01  0.51099999109E-03 0.  1.
       22    1    1    2    0    0  0.39169617914E-03  0.52543411807E-05 -0.34995211102E-01  0.34997403526E-01  0.00000000000E+00 0.  1.
       22    1    1    2    0    0 -0.40659747863E-03 -0.49347402763E-04  0.34779930779E-01  0.34782342383E-01  0.00000000000E+00 0.  1.
       22    1    1    2    0    0  0.14901299490E-04  0.44093061582E-04  0.21528032311E-03  0.22025409037E-03  0.00000000000E+00 0.  1.
</event>
<event>
 5   0  0.1554040E+07  0.9118800E+02  0.7546771E-02  0.1180000E+00
      -11   -1    0    0    0    0  0.00000000000E+00  0.00000000000E+00  0.34996269501E-01  0.35000000000E-01  0.51099999109E-03 0. -1.
       11   -1    0    0    0    0 -0.00000000000E+00 -0.00000000000E+00 -0.34996269501E-01  0.35000000000E-01  0.51099999109E-03 0.  1.
       22    1    1    2    0    0  0.29273551414E-02  0.82013189317E-02  0.33830319677E-01  0.34933101348E-01  0.00000000000E+00 0. -1.
       22    1    1    2    0    0  0.71942712223E-04  0.22844429817E-03 -0.46960950395E-03  0.52715807630E-03  0.00000000000E+00 0. -1.
       22    1    1    2    0    0 -0.29992978537E-02 -0.84297632299E-02 -0.33360710173E-01  0.34539740575E-01  0.00000000000E+00 0.  1.
</event>
<event>
 5   0  0.1554040E+07  0.9118800E+02  0.7546771E-02  0.1180000E+00
      -11   -1    0    0    0    0  0.00000000000E+00  0.00000000000E+00  0.34996269501E-01  0.35000000000E-01  0.51099999109E-03 0.  1.
       11   -1    0    0    0    0 -0.00000000000E+00 -0.00000000000E+00 -0.34996269501E-01  0.35000000000E-01  0.51099999109E-03 0. -1.
       22    1    1    2    0    0  0.12925828146E-05 -0.18913524354E-05  0.34144221213E-05  0.41117226061E-05  0.00000000000E+00 0.  1.
       22    1    1    2    0    0  0.40099255017E-02 -0.13482066149E-02 -0.34742910331E-01  0.34999528309E-01  0.00000000000E+00 0. -1.
       22    1    1    2    0    0 -0.40112180845E-02  0.13500979674E-02  0.34739495909E-01  0.34996359968E-01  0.00000000000E+00 0.  1.
</event>
<event>
 5   0  0.1554040E+07  0.9118800E+02  0.7546771E-02  0.1180000E+00
      -11   -1    0    0    0    0  0.00000000000E+00  0.00000000000E+00  0.34996269501E-01  0.35000000000E-01  0.51099999109E-03 0. -1.
       11   -1    0    0    0    0 -0.00000000000E+00 -0.00000000000E+00 -0.34996269501E-01  0.35000000000E-01  0.51099999109E-03 0.  1.
       22    1    1    2    0    0 -0.12643064680E-02 -0.86064968309E-03  0.34949331862E-01  0.34982781283E-01  0.00000000000E+00 0. -1.
       22    1    1    2    0    0  0.77864712339E-04 -0.49876686023E-04 -0.10148641417E-03  0.13729562811E-03  0.00000000000E+00 0.  1.
       22    1    1    2    0    0  0.11864417556E-02  0.91052636911E-03 -0.34847845448E-01  0.34879923089E-01  0.00000000000E+00 0.  1.
</event>
<event>
 5   0  0.1554040E+07  0.9118800E+02  0.7546771E-02  0.1180000E+00
      -11   -1    0    0    0    0  0.00000000000E+00  0.00000000000E+00  0.34996269501E-01  0.35000000000E-01  0.51099999109E-03 0. -1.
       11   -1    0    0    0    0 -0.00000000000E+00 -0.00000000000E+00 -0.34996269501E-01  0.35000000000E-01  0.51099999109E-03 0.  1.
       22    1    1    2    0    0  0.43196350623E-03  0.44285981473E-03 -0.34994237253E-01  0.34999705116E-01  0.00000000000E+00 0.  1.
       22    1    1    2    0    0 -0.40282549301E-03 -0.42589226159E-03  0.34464699221E-01  0.34469684434E-01  0.00000000000E+00 0. -1.
       22    1    1    2    0    0 -0.29138013222E-04 -0.16967553140E-04  0.52953803260E-03  0.53061044999E-03  0.00000000000E+00 0. -1.
</event>
<event>
 5   0  0.1554040E+07  0.9118800E+02  0.7546771E-02  0.1180000E+00
      -11   -1    0    0    0    0  0.00000000000E+00  0.00000000000E+00  0.34996269501E-01  0.35000000000E-01  0.51099999109E-03 0. -1.
       11   -1    0    0    0    0 -0.00000000000E+00 -0.00000000000E+00 -0.34996269501E-01  0.35000000000E-01  0.51099999109E-03 0.  1.
       22    1    1    2    0    0 -0.16946486413E-02  0.48971746723E-03  0.34955318053E-01  0.34999798819E-01  0.00000000000E+00 0. -1.
       22    1    1    2    0    0  0.16947460724E-02 -0.48977954383E-03 -0.34955499747E-01  0.34999985869E-01  0.00000000000E+00 0.  1.
       22    1    1    2    0    0 -0.97431115301E-07  0.62076595977E-07  0.18169440683E-06  0.21531182845E-06  0.00000000000E+00 0. -1.
</event>
<event>
 5   0  0.1554040E+07  0.9118800E+02  0.7546771E-02  0.1180000E+00
      -11   -1    0    0    0    0  0.00000000000E+00  0.00000000000E+00  0.34996269501E-01  0.35000000000E-01  0.51099999109E-03 0.  1.
       11   -1    0    0    0    0 -0.00000000000E+00 -0.00000000000E+00 -0.34996269501E-01  0.35000000000E-01  0.51099999109E-03 0. -1.
       22    1    1    2    0    0 -0.72037830594E-06  0.61167034945E-06  0.65261470317E-06  0.11484735395E-05  0.00000000000E+00 0. -1.
       22    1    1    2    0    0 -0.25243317930E-01  0.82974961140E-02  0.22778238212E-01  0.34998881095E-01  0.00000000000E+00 0.  1.
       22    1    1    2    0    0  0.25244038309E-01 -0.82981077844E-02 -0.22778890826E-01  0.34999970431E-01  0.00000000000E+00 0. -1.
</event>
<event>
 5   0  0.1554040E+07  0.9118800E+02  0.7546771E-02  0.1180000E+00
      -11   -1    0    0    0    0  0.00000000000E+00  0.00000000000E+00  0.34996269501E-01  0.35000000000E-01  0.51099999109E-03 0.  1.
       11   -1    0    0    0    0 -0.00000000000E+00 -0.00000000000E+00 -0.34996269501E-01  0.35000000000E-01  0.51099999109E-03 0. -1.
       22    1    1    2    0    0  0.13815360225E-02 -0.11278622889E-04 -0.34969543718E-01  0.34996824954E-01  0.00000000000E+00 0. -1.
       22    1    1    2    0    0 -0.12799391282E-04  0.26109407700E-05  0.90378800711E-05  0.15884731823E-04  0.00000000000E+00 0.  1.
       22    1    1    2    0    0 -0.13687366312E-02  0.86676821187E-05  0.34960505838E-01  0.34987290314E-01  0.00000000000E+00 0.  1.
</event>
<event>
 5   0  0.1554040E+07  0.9118800E+02  0.7546771E-02  0.1180000E+00
      -11   -1    0    0    0    0  0.00000000000E+00  0.00000000000E+00  0.34996269501E-01  0.35000000000E-01  0.51099999109E-03 0. -1.
       11   -1    0    0    0    0 -0.00000000000E+00 -0.00000000000E+00 -0.34996269501E-01  0.35000000000E-01  0.51099999109E-03 0.  1.
       22    1    1    2    0    0 -0.22641131178E-03  0.74758761753E-03  0.34976981413E-01  0.34985702481E-01  0.00000000000E+00 0. -1.
       22    1    1    2    0    0  0.11756431771E-03 -0.84347868941E-03 -0.34598341672E-01  0.34608821479E-01  0.00000000000E+00 0.  1.
       22    1    1    2    0    0  0.10884699406E-03  0.95891071885E-04 -0.37863974081E-03  0.40547604012E-03  0.00000000000E+00 0. -1.
</event>
<event>
 5   0  0.1554040E+07  0.9118800E+02  0.7546771E-02  0.1180000E+00
      -11   -1    0    0    0    0  0.00000000000E+00  0.00000000000E+00  0.34996269501E-01  0.35000000000E-01  0.51099999109E-03 0. -1.
       11   -1    0    0    0    0 -0.00000000000E+00 -0.00000000000E+00 -0.34996269501E-01  0.35000000000E-01  0.51099999109E-03 0.  1.
       22    1    1    2    0    0  0.16420169430E-01  0.16501440079E-01  0.26128405467E-01  0.34994471864E-01  0.00000000000E+00 0. -1.
       22    1    1    2    0    0  0.93421351492E-06 -0.72150883414E-07  0.60571635288E-05  0.61292079959E-05  0.00000000000E+00 0.  1.
       22    1    1    2    0    0 -0.16421103643E-01 -0.16501367928E-01 -0.26134462630E-01  0.34999398928E-01  0.00000000000E+00 0.  1.
</event>
<event>
 5   0  0.1554040E+07  0.9118800E+02  0.7546771E-02  0.1180000E+00
      -11   -1    0    0    0    0  0.00000000000E+00  0.00000000000E+00  0.34996269501E-01  0.35000000000E-01  0.51099999109E-03 0. -1.
       11   -1    0    0    0    0 -0.00000000000E+00 -0.00000000000E+00 -0.34996269501E-01  0.35000000000E-01  0.51099999109E-03 0.  1.
       22    1    1    2    0    0 -0.79238219494E-04  0.33631758553E-04  0.55923703139E-03  0.56582315956E-03  0.00000000000E+00 0. -1.
       22    1    1    2    0    0 -0.31124316534E-02  0.25252324315E-02 -0.34759659405E-01  0.34989969300E-01  0.00000000000E+00 0.  1.
       22    1    1    2    0    0  0.31916698729E-02 -0.25588641900E-02  0.34200422374E-01  0.34444207540E-01  0.00000000000E+00 0. -1.
</event>
<event>
 5   0  0.1554040E+07  0.9118800E+02  0.7546771E-02  0.1180000E+00
      -11   -1    0    0    0    0  0.00000000000E+00  0.00000000000E+00  0.34996269501E-01  0.35000000000E-01  0.51099999109E-03 0.  1.
       11   -1    0    0    0    0 -0.00000000000E+00 -0.00000000000E+00 -0.34996269501E-01  0.35000000000E-01  0.51099999109E-03 0. -1.
       22    1    1    2    0    0  0.17362776976E-02  0.21728653776E-03  0.34955839591E-01  0.34999608500E-01  0.00000000000E+00 0.  1.
       22    1    1    2    0    0 -0.17363921658E-02 -0.21724044277E-03 -0.34956218846E-01  0.34999992674E-01  0.00000000000E+00 0. -1.
       22    1    1    2    0    0  0.11446819187E-06 -0.46094982323E-07  0.37925517661E-06  0.39882603142E-06  0.00000000000E+00 0. -1.
</event>
<event>
 5   0  0.1554040E+07  0.9118800E+02  0.7546771E-02  0.1180000E+00
      -11   -1    0    0    0    0  0.00000000000E+00  0.00000000000E+00  0.34996269501E-01  0.35000000000E-01  0.51099999109E-03 0. -1.
       11   -1    0    0    0    0 -0.00000000000E+00 -0.00000000000E+00 -0.34996269501E-01  0.35000000000E-01  0.51099999109E-03 0.  1.
       22    1    1    2    0    0  0.60713689256E-03  0.15373306827E-02  0.34960751789E-01  0.34999802378E-01  0.00000000000E+00 0. -1.
       22    1    1    2    0    0 -0.60719875868E-03 -0.15374493717E-02 -0.34960923346E-01  0.34999980030E-01  0.00000000000E+00 0.  1.
       22    1    1    2    0    0  0.61866119631E-07  0.11868898383E-06  0.17155681065E-06  0.21759189076E-06  0.00000000000E+00 0.  1.
</event>
<event>
 5   0  0.1554040E+07  0.9118800E+02  0.7546771E-02  0.1180000E+00
      -11   -1    0    0    0    0  0.00000000000E+00  0.00000000000E+00  0.34996269501E-01  0.35000000000E-01  0.51099999109E-03 0.  1.
       11   -1    0    0    0    0 -0.00000000000E+00 -0.00000000000E+00 -0.34996269501E-01  0.35000000000E-01  0.51099999109E-03 0. -1.
       22    1    1    2    0    0  0.31467043019E-01 -0.11139743145E-01  0.97136019507E-02  0.34765251855E-01  0.00000000000E+00 0.  1.
       22    1    1    2    0    0 -0.31422699039E-01  0.11477518090E-01 -0.93474577802E-02  0.34734628303E-01  0.00000000000E+00 0. -1.
       22    1    1    2    0    0 -0.44343979746E-04 -0.33777494487E-03 -0.36614417055E-03  0.50011984119E-03  0.00000000000E+00 0.  1.
</event>
<event>
 5   0  0.1554040E+07  0.9118800E+02  0.7546771E-02  0.1180000E+00
      -11   -1    0    0    0    0  0.00000000000E+00  0.00000000000E+00  0.34996269501E-01  0.35000000000E-01  0.51099999109E-03 0.  1.
       11   -1    0    0    0    0 -0.00000000000E+00 -0.00000000000E+00 -0.34996269501E-01  0.35000000000E-01  0.51099999109E-03 0. -1.
       22    1    1    2    0    0 -0.61656652246E-04  0.89317031192E-03 -0.34988492137E-01  0.34999944811E-01  0.00000000000E+00 0. -1.
       22    1    1    2    0    0  0.45328619863E-05 -0.15453472800E-06  0.12906066982E-03  0.12914033921E-03  0.00000000000E+00 0.  1.
       22    1    1    2    0    0  0.57123790260E-04 -0.89301577719E-03  0.34859431467E-01  0.34870914850E-01  0.00000000000E+00 0.  1.
</event>
<event>
 5   0  0.1554040E+07  0.9118800E+02  0.7546771E-02  0.1180000E+00
      -11   -1    0    0    0    0  0.00000000000E+00  0.00000000000E+00  0.34996269501E-01  0.35000000000E-01  0.51099999109E-03 0.  1.
       11   -1    0    0    0    0 -0.00000000000E+00 -0.00000000000E+00 -0.34996269501E-01  0.35000000000E-01  0.51099999109E-03 0. -1.
       22    1    1    2    0    0  0.44346870135E-04 -0.31633081729E-04  0.34196252807E-03  0.34627397730E-03  0.00000000000E+00 0.  1.
       22    1    1    2    0    0 -0.24349992069E-02  0.25350583791E-01 -0.23945444225E-01  0.34956624820E-01  0.00000000000E+00 0. -1.
       22    1    1    2    0    0  0.23906523367E-02 -0.25318950709E-01  0.23603481697E-01  0.34697101202E-01  0.00000000000E+00 0.  1.
</event>
<event>
 5   0  0.1554040E+07  0.9118800E+02  0.7546771E-02  0.1180000E+00
      -11   -1    0    0    0    0  0.00000000000E+00  0.00000000000E+00  0.34996269501E-01  0.35000000000E-01  0.51099999109E-03 0. -1.
       11   -1    0    0    0    0 -0.00000000000E+00 -0.00000000000E+00 -0.34996269501E-01  0.35000000000E-01  0.51099999109E-03 0.  1.
       22    1    1    2    0    0  0.11511862789E-02  0.18915794436E-03  0.34582356261E-01  0.34602028483E-01  0.00000000000E+00 0. -1.
       22    1    1    2    0    0 -0.11649888380E-02 -0.16297163273E-03 -0.34979726456E-01  0.34999500306E-01  0.00000000000E+00 0.  1.
       22    1    1    2    0    0  0.13802559146E-04 -0.26186311626E-04  0.39737019486E-03  0.39847121015E-03  0.00000000000E+00 0. -1.
</event>
<event>
 5   0  0.1554040E+07  0.9118800E+02  0.7546771E-02  0.1180000E+00
      -11   -1    0    0    0    0  0.00000000000E+00  0.00000000000E+00  0.34996269501E-01  0.35000000000E-01  0.51099999109E-03 0. -1.
       11   -1    0    0    0    0 -0.00000000000E+00 -0.00000000000E+00 -0.34996269501E-01  0.35000000000E-01  0.51099999109E-03 0.  1.
       22    1    1    2    0    0 -0.73277817244E-03  0.76800558814E-02  0.34124800203E-01  0.34986028798E-01  0.00000000000E+00 0. -1.
       22    1    1    2    0    0  0.73359754064E-03 -0.76805990450E-02 -0.34138859033E-01  0.34999878044E-01  0.00000000000E+00 0.  1.
       22    1    1    2    0    0 -0.81936819287E-06  0.54316359650E-06  0.14058829843E-04  0.14093157470E-04  0.00000000000E+00 0.  1.
</event>
<event>
 5   0  0.1554040E+07  0.9118800E+02  0.7546771E-02  0.1180000E+00
      -11   -1    0    0    0    0  0.00000000000E+00  0.00000000000E+00  0.34996269501E-01  0.35000000000E-01  0.51099999109E-03 0.  1.
       11   -1    0    0    0    0 -0.00000000000E+00 -0.00000000000E+00 -0.34996269501E-01  0.35000000000E-01  0.51099999109E-03 0. -1.
       22    1    1    2    0    0  0.15893972577E-01 -0.18171020946E-02 -0.31112642857E-01  0.34984521862E-01  0.00000000000E+00 0. -1.
       22    1    1    2    0    0 -0.15450013275E-01  0.17012858107E-02  0.29573685711E-01  0.33409582011E-01  0.00000000000E+00 0.  1.
       22    1    1    2    0    0 -0.44395930267E-03  0.11581628390E-03  0.15389571461E-02  0.16058961273E-02  0.00000000000E+00 0. -1.
</event>
<event>
 5   0  0.1554040E+07  0.9118800E+02  0.7546771E-02  0.1180000E+00
      -11   -1    0    0    0    0  0.00000000000E+00  0.00000000000E+00  0.34996269501E-01  0.35000000000E-01  0.51099999109E-03 0. -1.
       11   -1    0    0    0    0 -0.00000000000E+00 -0.00000000000E+00 -0.34996269501E-01  0.35000000000E-01  0.51099999109E-03 0.  1.
       22    1    1    2    0    0  0.85530475417E-02 -0.23852203299E-01 -0.24143689062E-01  0.34999999229E-01  0.00000000000E+00 0.  1.
       22    1    1    2    0    0 -0.85530488163E-02  0.23852203672E-01  0.24143688112E-01  0.34999999138E-01  0.00000000000E+00 0. -1.
       22    1    1    2    0    0  0.12745866491E-08 -0.37275168838E-09  0.95038492177E-09  0.16330175892E-08  0.00000000000E+00 0. -1.
</event>
<event>
 5   0  0.1554040E+07  0.9118800E+02  0.7546771E-02  0.1180000E+00
      -11   -1    0    0    0    0  0.00000000000E+00  0.00000000000E+00  0.34996269501E-01  0.35000000000E-01  0.51099999109E-03 0.  1.
       11   -1    0    0    0    0 -0.00000000000E+00 -0.00000000000E+00 -0.34996269501E-01  0.35000000000E-01  0.51099999109E-03 0. -1.
       22    1    1    2    0    0 -0.17232214752E-03 -0.64589153660E-03 -0.32124562478E-01  0.32131517007E-01  0.00000000000E+00 0. -1.
       22    1    1    2    0    0 -0.10606827242E-02  0.19065694805E-02  0.34688294410E-01  0.34756838522E-01  0.00000000000E+00 0.  1.
       22    1    1    2    0    0  0.12330048717E-02 -0.12606779439E-02 -0.25637319320E-02  0.31116444705E-02  0.00000000000E+00 0. -1.
</event>
<event>
 5   0  0.1554040E+07  0.9118800E+02  0.7546771E-02  0.1180000E+00
      -11   -1    0    0    0    0  0.00000000000E+00  0.00000000000E+00  0.34996269501E-01  0.35000000000E-01  0.51099999109E-03 0. -1.
       11   -1    0    0    0    0 -0.00000000000E+00 -0.00000000000E+00 -0.34996269501E-01  0.35000000000E-01  0.51099999109E-03 0.  1.
       22    1    1    2    0    0  0.43162964242E-02 -0.27840107003E-01 -0.20767684709E-01  0.34999981441E-01  0.00000000000E+00 0.  1.
       22    1    1    2    0    0  0.10538612184E-07 -0.13382342629E-08  0.83815005748E-07  0.84485551465E-07  0.00000000000E+00 0. -1.
       22    1    1    2    0    0 -0.43163069629E-02  0.27840108341E-01  0.20767600894E-01  0.34999934073E-01  0.00000000000E+00 0. -1.
</event>
<event>
 5   0  0.1554040E+07  0.9118800E+02  0.7546771E-02  0.1180000E+00
      -11   -1    0    0    0    0  0.00000000000E+00  0.00000000000E+00  0.34996269501E-01  0.35000000000E-01  0.51099999109E-03 0.  1.
       11   -1    0    0    0    0 -0.00000000000E+00 -0.00000000000E+00 -0.34996269501E-01  0.35000000000E-01  0.51099999109E-03 0. -1.
       22    1    1    2    0    0 -0.69605678119E-09  0.39548139982E-09  0.22623299306E-09  0.83191462746E-09  0.00000000000E+00 0.  1.
       22    1    1    2    0    0 -0.11146907100E-01 -0.16448029839E-02  0.33136702333E-01  0.34999999375E-01  0.00000000000E+00 0.  1.
       22    1    1    2    0    0  0.11146907796E-01  0.16448025884E-02 -0.33136702560E-01  0.34999999793E-01  0.00000000000E+00 0. -1.
</event>
<event>
 5   0  0.1554040E+07  0.9118800E+02  0.7546771E-02  0.1180000E+00
      -11   -1    0    0    0    0  0.00000000000E+00  0.00000000000E+00  0.34996269501E-01  0.35000000000E-01  0.51099999109E-03 0.  1.
       11   -1    0    0    0    0 -0.00000000000E+00 -0.00000000000E+00 -0.34996269501E-01  0.35000000000E-01  0.51099999109E-03 0.  1.
       22    1    1    2    0    0 -0.23918848314E-06  0.96405318901E-07  0.13310845348E-05  0.13558359616E-05  0.00000000000E+00 0.  1.
       22    1    1    2    0    0  0.68112169198E-05  0.49928256090E-03 -0.34996424860E-01  0.34999986892E-01  0.00000000000E+00 0.  1.
       22    1    1    2    0    0 -0.65720284367E-05 -0.49937896622E-03  0.34995093775E-01  0.34998657272E-01  0.00000000000E+00 0.  1.
</event>
<event>
 5   0  0.1554040E+07  0.9118800E+02  0.7546771E-02  0.1180000E+00
      -11   -1    0    0    0    0  0.00000000000E+00  0.00000000000E+00  0.34996269501E-01  0.35000000000E-01  0.51099999109E-03 0.  1.
       11   -1    0    0    0    0 -0.00000000000E+00 -0.00000000000E+00 -0.34996269501E-01  0.35000000000E-01  0.51099999109E-03 0. -1.
       22    1    1    2    0    0  0.10836258962E-01  0.35489578417E-02  0.33070451369E-01  0.34981057214E-01  0.00000000000E+00 0.  1.
       22    1    1    2    0    0 -0.10866625041E-01 -0.35612538207E-02 -0.33063899452E-01  0.34985532946E-01  0.00000000000E+00 0. -1.
       22    1    1    2    0    0  0.30366078359E-04  0.12295979009E-04 -0.65519167250E-05  0.33409840279E-04  0.00000000000E+00 0.  1.
</event>
<event>
 5   0  0.1554040E+07  0.9118800E+02  0.7546771E-02  0.1180000E+00
      -11   -1    0    0    0    0  0.00000000000E+00  0.00000000000E+00  0.34996269501E-01  0.35000000000E-01  0.51099999109E-03 0. -1.
       11   -1    0    0    0    0 -0.00000000000E+00 -0.00000000000E+00 -0.34996269501E-01  0.35000000000E-01  0.51099999109E-03 0.  1.
       22    1    1    2    0    0  0.24143195125E-07 -0.16782627222E-06  0.27939136449E-05  0.27990537699E-05  0.00000000000E+00 0.  1.
       22    1    1    2    0    0 -0.20299719385E-02  0.95147720884E-03  0.34925328466E-01  0.34997209366E-01  0.00000000000E+00 0. -1.
       22    1    1    2    0    0  0.20299477953E-02 -0.95130938257E-03 -0.34928122380E-01  0.34999991580E-01  0.00000000000E+00 0.  1.
</event>
<event>
 5   0  0.1554040E+07  0.9118800E+02  0.7546771E-02  0.1180000E+00
      -11   -1    0    0    0    0  0.00000000000E+00  0.00000000000E+00  0.34996269501E-01  0.35000000000E-01  0.51099999109E-03 0. -1.
       11   -1    0    0    0    0 -0.00000000000E+00 -0.00000000000E+00 -0.34996269501E-01  0.35000000000E-01  0.51099999109E-03 0.  1.
       22    1    1    2    0    0  0.28962880790E-01  0.12157826900E-01 -0.12941007629E-01  0.33972502072E-01  0.00000000000E+00 0.  1.
       22    1    1    2    0    0 -0.28905235720E-01 -0.12239011965E-01  0.97984522739E-02  0.32883365595E-01  0.00000000000E+00 0. -1.
       22    1    1    2    0    0 -0.57645069906E-04  0.81185064876E-04  0.31425553549E-02  0.31441323330E-02  0.00000000000E+00 0. -1.
</event>
<event>
 5   0  0.1554040E+07  0.9118800E+02  0.7546771E-02  0.1180000E+00
      -11   -1    0    0    0    0  0.00000000000E+00  0.00000000000E+00  0.34996269501E-01  0.35000000000E-01  0.51099999109E-03 0. -1.
       11   -1    0    0    0    0 -0.00000000000E+00 -0.00000000000E+00 -0.34996269501E-01  0.35000000000E-01  0.51099999109E-03 0.  1.
       22    1    1    2    0    0  0.36207128635E-04 -0.12728625655E-04  0.37946422077E-04  0.53971335202E-04  0.00000000000E+00 0.  1.
       22    1    1    2    0    0  0.13591869192E-01  0.53754791820E-02  0.31746618131E-01  0.34949713122E-01  0.00000000000E+00 0. -1.
       22    1    1    2    0    0 -0.13628076321E-01 -0.53627505563E-02 -0.31784564553E-01  0.34996315543E-01  0.00000000000E+00 0.  1.
</event>
<event>
 5   0  0.1554040E+07  0.9118800E+02  0.7546771E-02  0.1180000E+00
      -11   -1    0    0    0    0  0.00000000000E+00  0.00000000000E+00  0.34996269501E-01  0.35000000000E-01  0.51099999109E-03 0.  1.
       11   -1    0    0    0    0 -0.00000000000E+00 -0.00000000000E+00 -0.34996269501E-01  0.35000000000E-01  0.51099999109E-03 0. -1.
       22    1    1    2    0    0 -0.15445619778E-02  0.59836298730E-03  0.34959580150E-01  0.34998799325E-01  0.00000000000E+00 0.  1.
       22    1    1    2    0    0 -0.90909542746E-07 -0.94422943756E-08  0.11976790739E-05  0.12011614654E-05  0.00000000000E+00 0. -1.
       22    1    1    2    0    0  0.15446528873E-02 -0.59835354501E-03 -0.34960777829E-01  0.34999999513E-01  0.00000000000E+00 0. -1.
</event>
<event>
 5   0  0.1554040E+07  0.9118800E+02  0.7546771E-02  0.1180000E+00
      -11   -1    0    0    0    0  0.00000000000E+00  0.00000000000E+00  0.34996269501E-01  0.35000000000E-01  0.51099999109E-03 0.  1.
       11   -1    0    0    0    0 -0.00000000000E+00 -0.00000000000E+00 -0.34996269501E-01  0.35000000000E-01  0.51099999109E-03 0. -1.
       22    1    1    2    0    0 -0.20865032863E-01  0.19624465438E-01  0.17835377083E-01  0.33742701667E-01  0.00000000000E+00 0.  1.
       22    1    1    2    0    0  0.20238816417E-01 -0.19709115678E-01 -0.19599690782E-01  0.34383234425E-01  0.00000000000E+00 0. -1.
       22    1    1    2    0    0  0.62621644653E-03  0.84650240150E-04  0.17643136996E-02  0.18740639081E-02  0.00000000000E+00 0. -1.
</event>
<event>
 5   0  0.1554040E+07  0.9118800E+02  0.7546771E-02  0.1180000E+00
      -11   -1    0    0    0    0  0.00000000000E+00  0.00000000000E+00  0.34996269501E-01  0.35000000000E-01  0.51099999109E-03 0.  1.
       11   -1    0    0    0    0 -0.00000000000E+00 -0.00000000000E+00 -0.34996269501E-01  0.35000000000E-01  0.51099999109E-03 0. -1.
       22    1    1    2    0    0 -0.20834773211E-01 -0.27025945983E-01 -0.77612733150E-02  0.34996098275E-01  0.00000000000E+00 0. -1.
       22    1    1    2    0    0  0.20833896772E-01  0.27027536592E-01  0.77523916208E-02  0.34994836259E-01  0.00000000000E+00 0.  1.
       22    1    1    2    0    0  0.87643897129E-06 -0.15906089981E-05  0.88816942379E-05  0.90654660549E-05  0.00000000000E+00 0.  1.
</event>
<event>
 5   0  0.1554040E+07  0.9118800E+02  0.7546771E-02  0.1180000E+00
      -11   -1    0    0    0    0  0.00000000000E+00  0.00000000000E+00  0.34996269501E-01  0.35000000000E-01  0.51099999109E-03 0. -1.
       11   -1    0    0    0    0 -0.00000000000E+00 -0.00000000000E+00 -0.34996269501E-01  0.35000000000E-01  0.51099999109E-03 0.  1.
       22    1    1    2    0    0 -0.24350854773E-06  0.14422881459E-06  0.37338249956E-06  0.46852198961E-06  0.00000000000E+00 0.  1.
       22    1    1    2    0    0  0.49446731060E-03  0.81988769851E-03 -0.34986854011E-01  0.34999952391E-01  0.00000000000E+00 0.  1.
       22    1    1    2    0    0 -0.49422380206E-03 -0.82003192733E-03  0.34986480628E-01  0.34999579087E-01  0.00000000000E+00 0. -1.
</event>
<event>
 5   0  0.1554040E+07  0.9118800E+02  0.7546771E-02  0.1180000E+00
      -11   -1    0    0    0    0  0.00000000000E+00  0.00000000000E+00  0.34996269501E-01  0.35000000000E-01  0.51099999109E-03 0.  1.
       11   -1    0    0    0    0 -0.00000000000E+00 -0.00000000000E+00 -0.34996269501E-01  0.35000000000E-01  0.51099999109E-03 0. -1.
       22    1    1    2    0    0 -0.10811261970E-01  0.79509722709E-02  0.27627439550E-01  0.30714438974E-01  0.00000000000E+00 0.  1.
       22    1    1    2    0    0 -0.77051713795E-05  0.49281768389E-04  0.44760092986E-02  0.44762872231E-02  0.00000000000E+00 0. -1.
       22    1    1    2    0    0  0.10818967141E-01 -0.80002540393E-02 -0.32103448848E-01  0.34809273803E-01  0.00000000000E+00 0. -1.
</event>
<event>
 5   0  0.1554040E+07  0.9118800E+02  0.7546771E-02  0.1180000E+00
      -11   -1    0    0    0    0  0.00000000000E+00  0.00000000000E+00  0.34996269501E-01  0.35000000000E-01  0.51099999109E-03 0. -1.
       11   -1    0    0    0    0 -0.00000000000E+00 -0.00000000000E+00 -0.34996269501E-01  0.35000000000E-01  0.51099999109E-03 0.  1.
       22    1    1    2    0    0 -0.32588831284E-02 -0.18131979747E-02  0.34800311638E-01  0.34999567087E-01  0.00000000000E+00 0. -1.
       22    1    1    2    0    0  0.52939847991E-07 -0.35176290159E-07  0.43338224091E-06  0.43801845353E-06  0.00000000000E+00 0. -1.
       22    1    1    2    0    0  0.32588301886E-02  0.18132331510E-02 -0.34800745020E-01  0.34999994895E-01  0.00000000000E+00 0.  1.
</event>
<event>
 5   0  0.1554040E+07  0.9118800E+02  0.7546771E-02  0.1180000E+00
      -11   -1    0    0    0    0  0.00000000000E+00  0.00000000000E+00  0.34996269501E-01  0.35000000000E-01  0.51099999109E-03 0. -1.
       11   -1    0    0    0    0 -0.00000000000E+00 -0.00000000000E+00 -0.34996269501E-01  0.35000000000E-01  0.51099999109E-03 0.  1.
       22    1    1    2    0    0 -0.18939136188E-03  0.82756167735E-05 -0.24965001484E-04  0.19120885201E-03  0.00000000000E+00 0.  1.
       22    1    1    2    0    0  0.58888194004E-03 -0.12350864863E-03  0.34913047140E-01  0.34918231584E-01  0.00000000000E+00 0. -1.
       22    1    1    2    0    0 -0.39949057816E-03  0.11523303186E-03 -0.34888082139E-01  0.34890559564E-01  0.00000000000E+00 0.  1.
</event>
<event>
 5   0  0.1554040E+07  0.9118800E+02  0.7546771E-02  0.1180000E+00
      -11   -1    0    0    0    0  0.00000000000E+00  0.00000000000E+00  0.34996269501E-01  0.35000000000E-01  0.51099999109E-03 0. -1.
       11   -1    0    0    0    0 -0.00000000000E+00 -0.00000000000E+00 -0.34996269501E-01  0.35000000000E-01  0.51099999109E-03 0.  1.
       22    1    1    2    0    0  0.20364358726E-03  0.96635530323E-03  0.34947420453E-01  0.34961371678E-01  0.00000000000E+00 0. -1.
       22    1    1    2    0    0 -0.29835873204E-05  0.47862487191E-05  0.38372209177E-04  0.38784486682E-04  0.00000000000E+00 0. -1.
       22    1    1    2    0    0 -0.20065999994E-03 -0.97114155195E-03 -0.34985792662E-01  0.34999843836E-01  0.00000000000E+00 0.  1.
</event>
<event>
 5   0  0.1554040E+07  0.9118800E+02  0.7546771E-02  0.1180000E+00
      -11   -1    0    0    0    0  0.00000000000E+00  0.00000000000E+00  0.34996269501E-01  0.35000000000E-01  0.51099999109E-03 0.  1.
       11   -1    0    0    0    0 -0.00000000000E+00 -0.00000000000E+00 -0.34996269501E-01  0.35000000000E-01  0.51099999109E-03 0.  1.
       22    1    1    2    0    0 -0.57649709223E-03  0.11249081389E-02  0.34957731269E-01  0.34980576649E-01  0.00000000000E+00 0.  1.
       22    1    1    2    0    0 -0.85320272404E-04  0.10094656157E-03 -0.24192179092E-03  0.27567355713E-03  0.00000000000E+00 0.  1.
       22    1    1    2    0    0  0.66181736464E-03 -0.12258547004E-02 -0.34715809478E-01  0.34743749794E-01  0.00000000000E+00 0.  1.
</event>
<event>
 5   0  0.1554040E+07  0.9118800E+02  0.7546771E-02  0.1180000E+00
      -11   -1    0    0    0    0  0.00000000000E+00  0.00000000000E+00  0.34996269501E-01  0.35000000000E-01  0.51099999109E-03 0. -1.
       11   -1    0    0    0    0 -0.00000000000E+00 -0.00000000000E+00 -0.34996269501E-01  0.35000000000E-01  0.51099999109E-03 0.  1.
       22    1    1    2    0    0  0.28455110095E-02 -0.30604964994E-02  0.34740083158E-01  0.34990526569E-01  0.00000000000E+00 0. -1.
       22    1    1    2    0    0 -0.29026560633E-05  0.26819989379E-04 -0.62069997966E-05  0.27681475557E-04  0.00000000000E+00 0.  1.
       22    1    1    2    0    0 -0.28426083534E-02  0.30336765100E-02 -0.34733876159E-01  0.34981791955E-01  0.00000000000E+00 0.  1.
</event>
<event>
 5   0  0.1554040E+07  0.9118800E+02  0.7546771E-02  0.1180000E+00
      -11   -1    0    0    0    0  0.00000000000E+00  0.00000000000E+00  0.34996269501E-01  0.35000000000E-01  0.51099999109E-03 0. -1.
       11   -1    0    0    0    0 -0.00000000000E+00 -0.00000000000E+00 -0.34996269501E-01  0.35000000000E-01  0.51099999109E-03 0.  1.
       22    1    1    2    0    0  0.49687160233E-02  0.27129642353E-02 -0.18087419839E-01  0.18952653384E-01  0.00000000000E+00 0. -1.
       22    1    1    2    0    0  0.99701257355E-02  0.37550012686E-02  0.29368789650E-01  0.31241466791E-01  0.00000000000E+00 0. -1.
       22    1    1    2    0    0 -0.14938841759E-01 -0.64679655039E-02 -0.11281369812E-01  0.19805879826E-01  0.00000000000E+00 0.  1.
</event>
<event>
 5   0  0.1554040E+07  0.9118800E+02  0.7546771E-02  0.1180000E+00
      -11   -1    0    0    0    0  0.00000000000E+00  0.00000000000E+00  0.34996269501E-01  0.35000000000E-01  0.51099999109E-03 0. -1.
       11   -1    0    0    0    0 -0.00000000000E+00 -0.00000000000E+00 -0.34996269501E-01  0.35000000000E-01  0.51099999109E-03 0.  1.
       22    1    1    2    0    0 -0.34945141055E-04  0.85077319232E-05  0.12168643063E-03  0.12689023518E-03  0.00000000000E+00 0.  1.
       22    1    1    2    0    0  0.35010140162E-02  0.25145795793E-01  0.23937086731E-01  0.34893441595E-01  0.00000000000E+00 0. -1.
       22    1    1    2    0    0 -0.34660688752E-02 -0.25154303525E-01 -0.24058773161E-01  0.34979668170E-01  0.00000000000E+00 0.  1.
</event>
<event>
 5   0  0.1554040E+07  0.9118800E+02  0.7546771E-02  0.1180000E+00
      -11   -1    0    0    0    0  0.00000000000E+00  0.00000000000E+00  0.34996269501E-01  0.35000000000E-01  0.51099999109E-03 0.  1.
       11   -1    0    0    0    0 -0.00000000000E+00 -0.00000000000E+00 -0.34996269501E-01  0.35000000000E-01  0.51099999109E-03 0. -1.
       22    1    1    2    0    0 -0.17711017472E-02  0.47618314864E-03  0.32915403740E-01  0.32966458031E-01  0.00000000000E+00 0.  1.
       22    1    1    2    0    0 -0.14710246441E-02  0.70274174338E-02 -0.23463399890E-01  0.24537311256E-01  0.00000000000E+00 0. -1.
       22    1    1    2    0    0  0.32421263912E-02 -0.75036005824E-02 -0.94520038498E-02  0.12496230712E-01  0.00000000000E+00 0.  1.
</event>
<event>
 5   0  0.1554040E+07  0.9118800E+02  0.7546771E-02  0.1180000E+00
      -11   -1    0    0    0    0  0.00000000000E+00  0.00000000000E+00  0.34996269501E-01  0.35000000000E-01  0.51099999109E-03 0.  1.
       11   -1    0    0    0    0 -0.00000000000E+00 -0.00000000000E+00 -0.34996269501E-01  0.35000000000E-01  0.51099999109E-03 0. -1.
       22    1    1    2    0    0 -0.11614483410E-05  0.61841145002E-06  0.10267449812E-04  0.10351421188E-04  0.00000000000E+00 0. -1.
       22    1    1    2    0    0  0.11481236214E-01  0.18604165944E-01 -0.27331051284E-01  0.34998859121E-01  0.00000000000E+00 0. -1.
       22    1    1    2    0    0 -0.11480074766E-01 -0.18604784355E-01  0.27320783835E-01  0.34990789458E-01  0.00000000000E+00 0.  1.
</event>
<event>
 5   0  0.1554040E+07  0.9118800E+02  0.7546771E-02  0.1180000E+00
      -11   -1    0    0    0    0  0.00000000000E+00  0.00000000000E+00  0.34996269501E-01  0.35000000000E-01  0.51099999109E-03 0.  1.
       11   -1    0    0    0    0 -0.00000000000E+00 -0.00000000000E+00 -0.34996269501E-01  0.35000000000E-01  0.51099999109E-03 0. -1.
       22    1    1    2    0    0  0.90379143653E-03  0.16654632064E-01 -0.29659746642E-01  0.34027844172E-01  0.00000000000E+00 0. -1.
       22    1    1    2    0    0 -0.37460893506E-03 -0.73751055805E-03  0.12625722680E-01  0.12652791268E-01  0.00000000000E+00 0.  1.
       22    1    1    2    0    0 -0.52918250147E-03 -0.15917121505E-01  0.17034023962E-01  0.23319364560E-01  0.00000000000E+00 0.  1.
</event>
<event>
 5   0  0.1554040E+07  0.9118800E+02  0.7546771E-02  0.1180000E+00
      -11   -1    0    0    0    0  0.00000000000E+00  0.00000000000E+00  0.34996269501E-01  0.35000000000E-01  0.51099999109E-03 0. -1.
       11   -1    0    0    0    0 -0.00000000000E+00 -0.00000000000E+00 -0.34996269501E-01  0.35000000000E-01  0.51099999109E-03 0.  1.
       22    1    1    2    0    0  0.99264401926E-04 -0.92498983791E-05  0.33010107532E-02  0.33025158554E-02  0.00000000000E+00 0.  1.
       22    1    1    2    0    0 -0.17026818718E-02  0.49374538051E-02 -0.34590064592E-01  0.34982140359E-01  0.00000000000E+00 0.  1.
       22    1    1    2    0    0  0.16034174699E-02 -0.49282039068E-02  0.31289053839E-01  0.31715343786E-01  0.00000000000E+00 0. -1.
</event>
<event>
 5   0  0.1554040E+07  0.9118800E+02  0.7546771E-02  0.1180000E+00
      -11   -1    0    0    0    0  0.00000000000E+00  0.00000000000E+00  0.34996269501E-01  0.35000000000E-01  0.51099999109E-03 0. -1.
       11   -1    0    0    0    0 -0.00000000000E+00 -0.00000000000E+00 -0.34996269501E-01  0.35000000000E-01  0.51099999109E-03 0.  1.
       22    1    1    2    0    0  0.81445170985E-02 -0.21927365961E-01  0.23417004163E-01  0.33098317491E-01  0.00000000000E+00 0. -1.
       22    1    1    2    0    0 -0.82365436822E-02  0.21997681372E-01 -0.25584032594E-01  0.34731561459E-01  0.00000000000E+00 0.  1.
       22    1    1    2    0    0  0.92026583691E-04 -0.70315410997E-04  0.21670284313E-02  0.21701210499E-02  0.00000000000E+00 0. -1.
</event>
<event>
 5   0  0.1554040E+07  0.9118800E+02  0.7546771E-02  0.1180000E+00
      -11   -1    0    0    0    0  0.00000000000E+00  0.00000000000E+00  0.34996269501E-01  0.35000000000E-01  0.51099999109E-03 0.  1.
       11   -1    0    0    0    0 -0.00000000000E+00 -0.00000000000E+00 -0.34996269501E-01  0.35000000000E-01  0.51099999109E-03 0. -1.
       22    1    1    2    0    0 -0.41480696381E-03  0.16646903139E-02 -0.34957602086E-01  0.34999674316E-01  0.00000000000E+00 0. -1.
       22    1    1    2    0    0  0.41363994528E-03 -0.16635410839E-02  0.34956092968E-01  0.34998098556E-01  0.00000000000E+00 0.  1.
       22    1    1    2    0    0  0.11670185325E-05 -0.11492300225E-05  0.15091178443E-05  0.22271278741E-05  0.00000000000E+00 0. -1.
</event>
<event>
 5   0  0.1554040E+07  0.9118800E+02  0.7546771E-02  0.1180000E+00
      -11   -1    0    0    0    0  0.00000000000E+00  0.00000000000E+00  0.34996269501E-01  0.35000000000E-01  0.51099999109E-03 0.  1.
       11   -1    0    0    0    0 -0.00000000000E+00 -0.00000000000E+00 -0.34996269501E-01  0.35000000000E-01  0.51099999109E-03 0. -1.
       22    1    1    2    0    0 -0.13939284772E-06  0.46122282653E-06  0.60008381857E-06  0.76958264730E-06  0.00000000000E+00 0. -1.
       22    1    1    2    0    0 -0.24217804182E-01 -0.21606847687E-01  0.13100148347E-01  0.34999597041E-01  0.00000000000E+00 0.  1.
       22    1    1    2    0    0  0.24217943575E-01  0.21606386464E-01 -0.13100748431E-01  0.34999633376E-01  0.00000000000E+00 0. -1.
</event>
<event>
 5   0  0.1554040E+07  0.9118800E+02  0.7546771E-02  0.1180000E+00
      -11   -1    0    0    0    0  0.00000000000E+00  0.00000000000E+00  0.34996269501E-01  0.35000000000E-01  0.51099999109E-03 0. -1.
       11   -1    0    0    0    0 -0.00000000000E+00 -0.00000000000E+00 -0.34996269501E-01  0.35000000000E-01  0.51099999109E-03 0.  1.
       22    1    1    2    0    0 -0.40432671044E-03 -0.34543243362E-02  0.34825901285E-01  0.34999131946E-01  0.00000000000E+00 0. -1.
       22    1    1    2    0    0 -0.27668010763E-06 -0.28401838285E-06  0.80843886243E-06  0.90043973593E-06  0.00000000000E+00 0.  1.
       22    1    1    2    0    0  0.40460339055E-03  0.34546083546E-02 -0.34826709724E-01  0.34999967614E-01  0.00000000000E+00 0.  1.
</event>
<event>
 5   0  0.1554040E+07  0.9118800E+02  0.7546771E-02  0.1180000E+00
      -11   -1    0    0    0    0  0.00000000000E+00  0.00000000000E+00  0.34996269501E-01  0.35000000000E-01  0.51099999109E-03 0. -1.
       11   -1    0    0    0    0 -0.00000000000E+00 -0.00000000000E+00 -0.34996269501E-01  0.35000000000E-01  0.51099999109E-03 0. -1.
       22    1    1    2    0    0  0.23424055045E-02 -0.32864231533E-02  0.34653554968E-01  0.34887767378E-01  0.00000000000E+00 0. -1.
       22    1    1    2    0    0  0.21294427397E-03 -0.54041749487E-03 -0.10937342638E-02  0.12384066264E-02  0.00000000000E+00 0. -1.
       22    1    1    2    0    0 -0.25553497785E-02  0.38268406482E-02 -0.33559820705E-01  0.33873825995E-01  0.00000000000E+00 0. -1.
</event>
<event>
 5   0  0.1554040E+07  0.9118800E+02  0.7546771E-02  0.1180000E+00
      -11   -1    0    0    0    0  0.00000000000E+00  0.00000000000E+00  0.34996269501E-01  0.35000000000E-01  0.51099999109E-03 0. -1.
       11   -1    0    0    0    0 -0.00000000000E+00 -0.00000000000E+00 -0.34996269501E-01  0.35000000000E-01  0.51099999109E-03 0.  1.
       22    1    1    2    0    0  0.10035234399E-02  0.21347430973E-02  0.34912218223E-01  0.34991815738E-01  0.00000000000E+00 0. -1.
       22    1    1    2    0    0 -0.95237704749E-06 -0.15301724921E-06  0.81835549112E-05  0.82402067513E-05  0.00000000000E+00 0.  1.
       22    1    1    2    0    0 -0.10025710628E-02 -0.21345900801E-02 -0.34920401778E-01  0.34999944055E-01  0.00000000000E+00 0.  1.
</event>
<event>
 5   0  0.1554040E+07  0.9118800E+02  0.7546771E-02  0.1180000E+00
      -11   -1    0    0    0    0  0.00000000000E+00  0.00000000000E+00  0.34996269501E-01  0.35000000000E-01  0.51099999109E-03 0. -1.
       11   -1    0    0    0    0 -0.00000000000E+00 -0.00000000000E+00 -0.34996269501E-01  0.35000000000E-01  0.51099999109E-03 0.  1.
       22    1    1    2    0    0 -0.57748982185E-02  0.38886812226E-02 -0.34285356143E-01  0.34985095926E-01  0.00000000000E+00 0.  1.
       22    1    1    2    0    0  0.57600429809E-02 -0.38733304676E-02  0.34295761881E-01  0.34991142695E-01  0.00000000000E+00 0. -1.
       22    1    1    2    0    0  0.14855237613E-04 -0.15350754955E-04 -0.10405738503E-04  0.23761379506E-04  0.00000000000E+00 0.  1.
</event>
<event>
 5   0  0.1554040E+07  0.9118800E+02  0.7546771E-02  0.1180000E+00
      -11   -1    0    0    0    0  0.00000000000E+00  0.00000000000E+00  0.34996269501E-01  0.35000000000E-01  0.51099999109E-03 0.  1.
       11   -1    0    0    0    0 -0.00000000000E+00 -0.00000000000E+00 -0.34996269501E-01  0.35000000000E-01  0.51099999109E-03 0. -1.
       22    1    1    2    0    0 -0.10587656178E-04 -0.35083969365E-05  0.93337139110E-04  0.94001217277E-04  0.00000000000E+00 0. -1.
       22    1    1    2    0    0 -0.16255772096E-02 -0.30732545408E-04  0.34868247414E-01  0.34906133035E-01  0.00000000000E+00 0.  1.
       22    1    1    2    0    0  0.16361648657E-02  0.34240942344E-04 -0.34961584553E-01  0.34999865748E-01  0.00000000000E+00 0. -1.
</event>
<event>
 5   0  0.1554040E+07  0.9118800E+02  0.7546771E-02  0.1180000E+00
      -11   -1    0    0    0    0  0.00000000000E+00  0.00000000000E+00  0.34996269501E-01  0.35000000000E-01  0.51099999109E-03 0.  1.
       11   -1    0    0    0    0 -0.00000000000E+00 -0.00000000000E+00 -0.34996269501E-01  0.35000000000E-01  0.51099999109E-03 0. -1.
       22    1    1    2    0    0 -0.53469367945E-02 -0.70507657200E-02 -0.33855743325E-01  0.34993061975E-01  0.00000000000E+00 0. -1.
       22    1    1    2    0    0 -0.26542614219E-05  0.50421650711E-04  0.46663207537E-04  0.68752039255E-04  0.00000000000E+00 0.  1.
       22    1    1    2    0    0  0.53495910559E-02  0.70003440693E-02  0.33809080118E-01  0.34938185985E-01  0.00000000000E+00 0.  1.
</event>
<event>
 5   0  0.1554040E+07  0.9118800E+02  0.7546771E-02  0.1180000E+00
      -11   -1    0    0    0    0  0.00000000000E+00  0.00000000000E+00  0.34996269501E-01  0.35000000000E-01  0.51099999109E-03 0. -1.
       11   -1    0    0    0    0 -0.00000000000E+00 -0.00000000000E+00 -0.34996269501E-01  0.35000000000E-01  0.51099999109E-03 0.  1.
       22    1    1    2    0    0  0.13066761001E-05  0.14727256670E-05  0.21470761793E-05  0.29131185079E-05  0.00000000000E+00 0.  1.
       22    1    1    2    0    0 -0.11437723066E-03  0.69941859828E-03  0.34990280993E-01  0.34997457515E-01  0.00000000000E+00 0. -1.
       22    1    1    2    0    0  0.11307055456E-03 -0.70089132395E-03 -0.34992428069E-01  0.34999629367E-01  0.00000000000E+00 0.  1.
</event>
<event>
 5   0  0.1554040E+07  0.9118800E+02  0.7546771E-02  0.1180000E+00
      -11   -1    0    0    0    0  0.00000000000E+00  0.00000000000E+00  0.34996269501E-01  0.35000000000E-01  0.51099999109E-03 0.  1.
       11   -1    0    0    0    0 -0.00000000000E+00 -0.00000000000E+00 -0.34996269501E-01  0.35000000000E-01  0.51099999109E-03 0. -1.
       22    1    1    2    0    0 -0.16923269368E-03  0.95869959761E-02 -0.33632150387E-01  0.34972284329E-01  0.00000000000E+00 0. -1.
       22    1    1    2    0    0  0.14993860397E-04  0.86465029398E-04  0.13178976138E-03  0.15833369307E-03  0.00000000000E+00 0.  1.
       22    1    1    2    0    0  0.15423883328E-03 -0.96734610055E-02  0.33500360626E-01  0.34869381978E-01  0.00000000000E+00 0.  1.
</event>
<event>
 5   0  0.1554040E+07  0.9118800E+02  0.7546771E-02  0.1180000E+00
      -11   -1    0    0    0    0  0.00000000000E+00  0.00000000000E+00  0.34996269501E-01  0.35000000000E-01  0.51099999109E-03 0.  1.
       11   -1    0    0    0    0 -0.00000000000E+00 -0.00000000000E+00 -0.34996269501E-01  0.35000000000E-01  0.51099999109E-03 0.  1.
       22    1    1    2    0    0  0.21495120044E-03  0.10269020341E-02 -0.37647427830E-03  0.11146590010E-02  0.00000000000E+00 0. -1.
       22    1    1    2    0    0 -0.18294943676E-03 -0.15040162351E-03  0.34624888151E-01  0.34625698125E-01  0.00000000000E+00 0.  1.
       22    1    1    2    0    0 -0.32001763688E-04 -0.87650041062E-03 -0.34248413873E-01  0.34259642874E-01  0.00000000000E+00 0.  1.
</event>
<event>
 5   0  0.1554040E+07  0.9118800E+02  0.7546771E-02  0.1180000E+00
      -11   -1    0    0    0    0  0.00000000000E+00  0.00000000000E+00  0.34996269501E-01  0.35000000000E-01  0.51099999109E-03 0.  1.
       11   -1    0    0    0    0 -0.00000000000E+00 -0.00000000000E+00 -0.34996269501E-01  0.35000000000E-01  0.51099999109E-03 0. -1.
       22    1    1    2    0    0  0.26705306081E-04  0.57089881456E-03  0.16502008413E-02  0.17463680730E-02  0.00000000000E+00 0.  1.
       22    1    1    2    0    0 -0.98344747862E-02 -0.32072291782E-01 -0.83897675630E-02  0.34579430219E-01  0.00000000000E+00 0. -1.
       22    1    1    2    0    0  0.98077694801E-02  0.31501392968E-01  0.67395667217E-02  0.33674201708E-01  0.00000000000E+00 0.  1.
</event>
<event>
 5   0  0.1554040E+07  0.9118800E+02  0.7546771E-02  0.1180000E+00
      -11   -1    0    0    0    0  0.00000000000E+00  0.00000000000E+00  0.34996269501E-01  0.35000000000E-01  0.51099999109E-03 0.  1.
       11   -1    0    0    0    0 -0.00000000000E+00 -0.00000000000E+00 -0.34996269501E-01  0.35000000000E-01  0.51099999109E-03 0. -1.
       22    1    1    2    0    0  0.85803636277E-02  0.20242698488E-02 -0.32794759237E-01  0.33959042121E-01  0.00000000000E+00 0. -1.
       22    1    1    2    0    0 -0.85411967140E-02 -0.19945322497E-02  0.33858485603E-01  0.34976095373E-01  0.00000000000E+00 0.  1.
       22    1    1    2    0    0 -0.39166913731E-04 -0.29737599097E-04 -0.10637263668E-02  0.10648625054E-02  0.00000000000E+00 0.  1.
</event>
<event>
 5   0  0.1554040E+07  0.9118800E+02  0.7546771E-02  0.1180000E+00
      -11   -1    0    0    0    0  0.00000000000E+00  0.00000000000E+00  0.34996269501E-01  0.35000000000E-01  0.51099999109E-03 0.  1.
       11   -1    0    0    0    0 -0.00000000000E+00 -0.00000000000E+00 -0.34996269501E-01  0.35000000000E-01  0.51099999109E-03 0.  1.
       22    1    1    2    0    0 -0.19220030872E-03 -0.34556255296E-03 -0.34997547963E-01  0.34999781683E-01  0.00000000000E+00 0.  1.
       22    1    1    2    0    0  0.23612155843E-05 -0.45411809280E-05  0.32359255048E-04  0.32761548354E-04  0.00000000000E+00 0.  1.
       22    1    1    2    0    0  0.18983909313E-03  0.35010373388E-03  0.34965188708E-01  0.34967456769E-01  0.00000000000E+00 0.  1.
</event>
<event>
 5   0  0.1554040E+07  0.9118800E+02  0.7546771E-02  0.1180000E+00
      -11   -1    0    0    0    0  0.00000000000E+00  0.00000000000E+00  0.34996269501E-01  0.35000000000E-01  0.51099999109E-03 0.  1.
       11   -1    0    0    0    0 -0.00000000000E+00 -0.00000000000E+00 -0.34996269501E-01  0.35000000000E-01  0.51099999109E-03 0. -1.
       22    1    1    2    0    0  0.11502880304E-02 -0.28691219250E-02  0.16347584758E-02  0.34967782955E-02  0.00000000000E+00 0. -1.
       22    1    1    2    0    0 -0.10010210727E-03 -0.47620731372E-03 -0.33972480643E-01  0.33975965547E-01  0.00000000000E+00 0. -1.
       22    1    1    2    0    0 -0.10501859232E-02  0.33453292388E-02  0.32337722167E-01  0.32527256157E-01  0.00000000000E+00 0.  1.
</event>
<event>
 5   0  0.2352541E+07  0.9118800E+02  0.7546771E-02  0.1180000E+00
      -11   -1    0    0    0    0  0.00000000000E+00  0.00000000000E+00  0.34996269501E-01  0.35000000000E-01  0.51099999109E-03 0. -1.
       11   -1    0    0    0    0 -0.00000000000E+00 -0.00000000000E+00 -0.34996269501E-01  0.35000000000E-01  0.51099999109E-03 0.  1.
       22    1    1    2    0    0 -0.20527950157E-02 -0.20511440187E-02 -0.34879489847E-01  0.34999999588E-01  0.00000000000E+00 0.  1.
       22    1    1    2    0    0 -0.16120666856E-09 -0.34156550679E-08  0.97716951745E-08  0.10352715282E-07  0.00000000000E+00 0.  1.
       22    1    1    2    0    0  0.20527951769E-02  0.20511474344E-02  0.34879480075E-01  0.34999990059E-01  0.00000000000E+00 0. -1.
</event>
<event>
 5   0  0.1554040E+07  0.9118800E+02  0.7546771E-02  0.1180000E+00
      -11   -1    0    0    0    0  0.00000000000E+00  0.00000000000E+00  0.34996269501E-01  0.35000000000E-01  0.51099999109E-03 0.  1.
       11   -1    0    0    0    0 -0.00000000000E+00 -0.00000000000E+00 -0.34996269501E-01  0.35000000000E-01  0.51099999109E-03 0. -1.
       22    1    1    2    0    0 -0.19448991158E-02 -0.71531967210E-02  0.34196200143E-01  0.34990440982E-01  0.00000000000E+00 0.  1.
       22    1    1    2    0    0  0.18632729235E-02  0.71119829019E-02 -0.34066887450E-01  0.34851182294E-01  0.00000000000E+00 0. -1.
       22    1    1    2    0    0  0.81626192270E-04  0.41213819100E-04 -0.12931269314E-03  0.15837672417E-03  0.00000000000E+00 0. -1.
</event>
<event>
 5   0  0.1554040E+07  0.9118800E+02  0.7546771E-02  0.1180000E+00
      -11   -1    0    0    0    0  0.00000000000E+00  0.00000000000E+00  0.34996269501E-01  0.35000000000E-01  0.51099999109E-03 0. -1.
       11   -1    0    0    0    0 -0.00000000000E+00 -0.00000000000E+00 -0.34996269501E-01  0.35000000000E-01  0.51099999109E-03 0. -1.
       22    1    1    2    0    0  0.51241808248E-05 -0.21375897684E-05  0.24629477930E-04  0.25247528637E-04  0.00000000000E+00 0.  1.
       22    1    1    2    0    0  0.39914558567E-09 -0.16650652060E-09 -0.35001409043E-01  0.34999691359E-01  0.00000000000E+00 0. -1.
       22    1    1    2    0    0 -0.51245799704E-05  0.21377562749E-05  0.34976779565E-01  0.34975061112E-01  0.00000000000E+00 0. -1.
</event>
<event>
 5   0  0.1554040E+07  0.9118800E+02  0.7546771E-02  0.1180000E+00
      -11   -1    0    0    0    0  0.00000000000E+00  0.00000000000E+00  0.34996269501E-01  0.35000000000E-01  0.51099999109E-03 0.  1.
       11   -1    0    0    0    0 -0.00000000000E+00 -0.00000000000E+00 -0.34996269501E-01  0.35000000000E-01  0.51099999109E-03 0. -1.
       22    1    1    2    0    0  0.33066879761E-05  0.10815565991E-04  0.17540912537E-03  0.17577335383E-03  0.00000000000E+00 0. -1.
       22    1    1    2    0    0  0.12322755112E-01 -0.32633020689E-01 -0.16355529869E-02  0.34920472025E-01  0.00000000000E+00 0. -1.
       22    1    1    2    0    0 -0.12326061800E-01  0.32622205123E-01  0.14601438615E-02  0.34903754622E-01  0.00000000000E+00 0.  1.
</event>
<event>
 5   0  0.1554040E+07  0.9118800E+02  0.7546771E-02  0.1180000E+00
      -11   -1    0    0    0    0  0.00000000000E+00  0.00000000000E+00  0.34996269501E-01  0.35000000000E-01  0.51099999109E-03 0. -1.
       11   -1    0    0    0    0 -0.00000000000E+00 -0.00000000000E+00 -0.34996269501E-01  0.35000000000E-01  0.51099999109E-03 0.  1.
       22    1    1    2    0    0 -0.80161897548E-03  0.12511857142E-02  0.38535285012E-02  0.41301017642E-02  0.00000000000E+00 0. -1.
       22    1    1    2    0    0 -0.26721744170E-02 -0.25814099209E-02  0.30796986978E-01  0.31020293361E-01  0.00000000000E+00 0. -1.
       22    1    1    2    0    0  0.34737933925E-02  0.13302242067E-02 -0.34650515479E-01  0.34849604875E-01  0.00000000000E+00 0.  1.
</event>
<event>
 5   0  0.1554040E+07  0.9118800E+02  0.7546771E-02  0.1180000E+00
      -11   -1    0    0    0    0  0.00000000000E+00  0.00000000000E+00  0.34996269501E-01  0.35000000000E-01  0.51099999109E-03 0. -1.
       11   -1    0    0    0    0 -0.00000000000E+00 -0.00000000000E+00 -0.34996269501E-01  0.35000000000E-01  0.51099999109E-03 0.  1.
       22    1    1    2    0    0  0.23315205452E-02 -0.36241967565E-02  0.17395939043E-01  0.17921760108E-01  0.00000000000E+00 0. -1.
       22    1    1    2    0    0 -0.70203333900E-02 -0.11872356457E-01  0.12154000875E-01  0.18383624943E-01  0.00000000000E+00 0. -1.
       22    1    1    2    0    0  0.46888128449E-02  0.15496553214E-01 -0.29549939918E-01  0.33694614949E-01  0.00000000000E+00 0.  1.
</event>
<event>
 5   0  0.1554040E+07  0.9118800E+02  0.7546771E-02  0.1180000E+00
      -11   -1    0    0    0    0  0.00000000000E+00  0.00000000000E+00  0.34996269501E-01  0.35000000000E-01  0.51099999109E-03 0. -1.
       11   -1    0    0    0    0 -0.00000000000E+00 -0.00000000000E+00 -0.34996269501E-01  0.35000000000E-01  0.51099999109E-03 0.  1.
       22    1    1    2    0    0 -0.10815828945E-08 -0.19346578280E-08  0.22713466969E-08  0.31736002090E-08  0.00000000000E+00 0. -1.
       22    1    1    2    0    0 -0.14153258000E-02  0.88732506225E-02 -0.33826945734E-01  0.34999999734E-01  0.00000000000E+00 0.  1.
       22    1    1    2    0    0  0.14153268816E-02 -0.88732486878E-02  0.33826943462E-01  0.34999997092E-01  0.00000000000E+00 0. -1.
</event>
