<event>
 5   0  0.1995440E+08  0.9118800E+02  0.7546771E-02  0.1180000E+00
      -11   -1    0    0    0    0  0.00000000000E+00  0.00000000000E+00  0.34996269501E-01  0.35000000000E-01  0.51099999109E-03 0. -1.
       11   -1    0    0    0    0 -0.00000000000E+00 -0.00000000000E+00 -0.34996269501E-01  0.35000000000E-01  0.51099999109E-03 0.  1.
       22    1    1    2    0    0  0.23450390568E-01 -0.16542056671E-01  0.20032025959E-01  0.34997750224E-01  0.00000000000E+00 0. -1.
       22    1    1    2    0    0 -0.23450826405E-01  0.16541533084E-01 -0.20034806896E-01  0.34999386612E-01  0.00000000000E+00 0.  1.
       22    1    1    2    0    0  0.43583724335E-06  0.52358682642E-06  0.27809371770E-05  0.28631641325E-05  0.00000000000E+00 0. -1.
</event>
<event>
 5   0  0.1995440E+08  0.9118800E+02  0.7546771E-02  0.1180000E+00
      -11   -1    0    0    0    0  0.00000000000E+00  0.00000000000E+00  0.34996269501E-01  0.35000000000E-01  0.51099999109E-03 0.  1.
       11   -1    0    0    0    0 -0.00000000000E+00 -0.00000000000E+00 -0.34996269501E-01  0.35000000000E-01  0.51099999109E-03 0.  1.
       22    1    1    2    0    0  0.19840065724E-06 -0.23413698851E-06  0.33430598385E-04  0.33432006990E-04  0.00000000000E+00 0.  1.
       22    1    1    2    0    0 -0.19841337352E-06  0.23415199527E-06  0.34967320370E-01  0.34966568339E-01  0.00000000000E+00 0.  1.
       22    1    1    2    0    0  0.12716279963E-10 -0.15006762260E-10 -0.35000750968E-01  0.34999999654E-01  0.00000000000E+00 0.  1.
</event>
<event>
 5   0  0.1995440E+08  0.9118800E+02  0.7546771E-02  0.1180000E+00
      -11   -1    0    0    0    0  0.00000000000E+00  0.00000000000E+00  0.34996269501E-01  0.35000000000E-01  0.51099999109E-03 0.  1.
       11   -1    0    0    0    0 -0.00000000000E+00 -0.00000000000E+00 -0.34996269501E-01  0.35000000000E-01  0.51099999109E-03 0. -1.
       22    1    1    2    0    0 -0.35082688899E-02  0.20027424167E-02  0.32453226277E-01  0.32703682111E-01  0.00000000000E+00 0.  1.
       22    1    1    2    0    0  0.25543240050E-02 -0.24518640477E-02 -0.34665384762E-01  0.34845733012E-01  0.00000000000E+00 0. -1.
       22    1    1    2    0    0  0.95394488492E-03  0.44912163094E-03  0.22121584844E-02  0.24505848777E-02  0.00000000000E+00 0.  1.
</event>
<event>
 5   0  0.1995440E+08  0.9118800E+02  0.7546771E-02  0.1180000E+00
      -11   -1    0    0    0    0  0.00000000000E+00  0.00000000000E+00  0.34996269501E-01  0.35000000000E-01  0.51099999109E-03 0. -1.
       11   -1    0    0    0    0 -0.00000000000E+00 -0.00000000000E+00 -0.34996269501E-01  0.35000000000E-01  0.51099999109E-03 0.  1.
       22    1    1    2    0    0 -0.45986192020E-04  0.78085243456E-02  0.34008152618E-01  0.34893116967E-01  0.00000000000E+00 0. -1.
       22    1    1    2    0    0  0.43174688359E-04 -0.78109644471E-02 -0.34116097799E-01  0.34998873678E-01  0.00000000000E+00 0.  1.
       22    1    1    2    0    0  0.28115036616E-05  0.24401014748E-05  0.10794518150E-03  0.10800935542E-03  0.00000000000E+00 0. -1.
</event>
<event>
 5   0  0.1995440E+08  0.9118800E+02  0.7546771E-02  0.1180000E+00
      -11   -1    0    0    0    0  0.00000000000E+00  0.00000000000E+00  0.34996269501E-01  0.35000000000E-01  0.51099999109E-03 0. -1.
       11   -1    0    0    0    0 -0.00000000000E+00 -0.00000000000E+00 -0.34996269501E-01  0.35000000000E-01  0.51099999109E-03 0.  1.
       22    1    1    2    0    0  0.79989811507E-04 -0.48655095054E-02 -0.34660068932E-01  0.34999999421E-01  0.00000000000E+00 0.  1.
       22    1    1    2    0    0 -0.85265809996E-08  0.59586936320E-10  0.60771069760E-07  0.61366351153E-07  0.00000000000E+00 0. -1.
       22    1    1    2    0    0 -0.79981284926E-04  0.48655094458E-02  0.34660008161E-01  0.34999939213E-01  0.00000000000E+00 0. -1.
</event>
<event>
 5   0  0.1995440E+08  0.9118800E+02  0.7546771E-02  0.1180000E+00
      -11   -1    0    0    0    0  0.00000000000E+00  0.00000000000E+00  0.34996269501E-01  0.35000000000E-01  0.51099999109E-03 0.  1.
       11   -1    0    0    0    0 -0.00000000000E+00 -0.00000000000E+00 -0.34996269501E-01  0.35000000000E-01  0.51099999109E-03 0. -1.
       22    1    1    2    0    0  0.37164079392E-07  0.28766162236E-06  0.16240524436E-05  0.16497505016E-05  0.00000000000E+00 0. -1.
       22    1    1    2    0    0 -0.59982051891E-03 -0.17046712942E-02  0.34951685497E-01  0.34998371505E-01  0.00000000000E+00 0.  1.
       22    1    1    2    0    0  0.59978335483E-03  0.17043836325E-02 -0.34953309550E-01  0.34999978745E-01  0.00000000000E+00 0. -1.
</event>
