<event>
 5   0  0.3952923E+08  0.9118800E+02  0.7546771E-02  0.1180000E+00
      -11   -1    0    0    0    0  0.00000000000E+00  0.00000000000E+00  0.34996269501E-01  0.35000000000E-01  0.51099999109E-03 0.  1.
       11   -1    0    0    0    0 -0.00000000000E+00 -0.00000000000E+00 -0.34996269501E-01  0.35000000000E-01  0.51099999109E-03 0. -1.
       22    1    1    2    0    0  0.44058508090E-03 -0.16477394979E-02 -0.34958415728E-01  0.34999999869E-01  0.00000000000E+00 0. -1.
       22    1    1    2    0    0 -0.44058459247E-03  0.16477393241E-02  0.34958415377E-01  0.34999999504E-01  0.00000000000E+00 0.  1.
       22    1    1    2    0    0 -0.48843943288E-09  0.17383703080E-09  0.35110698257E-09  0.62615373997E-09  0.00000000000E+00 0. -1.
</event>
<event>
 5   0  0.3952923E+08  0.9118800E+02  0.7546771E-02  0.1180000E+00
      -11   -1    0    0    0    0  0.00000000000E+00  0.00000000000E+00  0.34996269501E-01  0.35000000000E-01  0.51099999109E-03 0.  1.
       11   -1    0    0    0    0 -0.00000000000E+00 -0.00000000000E+00 -0.34996269501E-01  0.35000000000E-01  0.51099999109E-03 0. -1.
       22    1    1    2    0    0 -0.15061829203E-01 -0.15424304010E-01  0.27572305064E-01  0.34999997995E-01  0.00000000000E+00 0.  1.
       22    1    1    2    0    0 -0.12579179908E-09 -0.47885060528E-10  0.21982169803E-08  0.22023338639E-08  0.00000000000E+00 0. -1.
       22    1    1    2    0    0  0.15061829329E-01  0.15424304057E-01 -0.27572307263E-01  0.34999999802E-01  0.00000000000E+00 0. -1.
</event>
<event>
 5   0  0.3952923E+08  0.9118800E+02  0.7546771E-02  0.1180000E+00
      -11   -1    0    0    0    0  0.00000000000E+00  0.00000000000E+00  0.34996269501E-01  0.35000000000E-01  0.51099999109E-03 0. -1.
       11   -1    0    0    0    0 -0.00000000000E+00 -0.00000000000E+00 -0.34996269501E-01  0.35000000000E-01  0.51099999109E-03 0.  1.
       22    1    1    2    0    0  0.72370476417E-04  0.15187670960E-02  0.34966899102E-01  0.34999941769E-01  0.00000000000E+00 0. -1.
       22    1    1    2    0    0  0.29671532343E-09  0.48126521177E-08  0.58053992269E-07  0.58253889816E-07  0.00000000000E+00 0. -1.
       22    1    1    2    0    0 -0.72370773132E-04 -0.15187719087E-02 -0.34966957156E-01  0.34999999977E-01  0.00000000000E+00 0.  1.
</event>
