<event>
 5   0  0.3590931E+07  0.9118800E+02  0.7546771E-02  0.1180000E+00
      -11   -1    0    0    0    0  0.00000000000E+00  0.00000000000E+00  0.34996269501E-01  0.35000000000E-01  0.51099999109E-03 0. -1.
       11   -1    0    0    0    0 -0.00000000000E+00 -0.00000000000E+00 -0.34996269501E-01  0.35000000000E-01  0.51099999109E-03 0. -1.
       22    1    1    2    0    0  0.73886347806E-03  0.13768952300E-02  0.34863319845E-01  0.34898321311E-01  0.00000000000E+00 0. -1.
       22    1    1    2    0    0 -0.81224191738E-03 -0.13431187420E-02 -0.34948822677E-01  0.34984052243E-01  0.00000000000E+00 0. -1.
       22    1    1    2    0    0  0.73378439318E-04 -0.33776487988E-04  0.85502831663E-04  0.11762644567E-03  0.00000000000E+00 0. -1.
</event>
<event>
 5   0  0.3590931E+07  0.9118800E+02  0.7546771E-02  0.1180000E+00
      -11   -1    0    0    0    0  0.00000000000E+00  0.00000000000E+00  0.34996269501E-01  0.35000000000E-01  0.51099999109E-03 0. -1.
       11   -1    0    0    0    0 -0.00000000000E+00 -0.00000000000E+00 -0.34996269501E-01  0.35000000000E-01  0.51099999109E-03 0.  1.
       22    1    1    2    0    0  0.10065469751E-01 -0.12507198733E-01  0.24511385470E-01  0.29301053208E-01  0.00000000000E+00 0. -1.
       22    1    1    2    0    0 -0.12531014179E-01  0.12141556641E-01 -0.14557130531E-02  0.17508935277E-01  0.00000000000E+00 0.  1.
       22    1    1    2    0    0  0.24655444281E-02  0.36564209150E-03 -0.23055672417E-01  0.23190011515E-01  0.00000000000E+00 0.  1.
</event>
<event>
 5   0  0.3590931E+07  0.9118800E+02  0.7546771E-02  0.1180000E+00
      -11   -1    0    0    0    0  0.00000000000E+00  0.00000000000E+00  0.34996269501E-01  0.35000000000E-01  0.51099999109E-03 0.  1.
       11   -1    0    0    0    0 -0.00000000000E+00 -0.00000000000E+00 -0.34996269501E-01  0.35000000000E-01  0.51099999109E-03 0. -1.
       22    1    1    2    0    0  0.77571551659E-03  0.11339920103E-02  0.34034878532E-01  0.34062598684E-01  0.00000000000E+00 0.  1.
       22    1    1    2    0    0  0.36572227695E-04  0.20960513394E-03  0.92151831285E-03  0.94576309979E-03  0.00000000000E+00 0. -1.
       22    1    1    2    0    0 -0.81228774428E-03 -0.13435971442E-02 -0.34956396845E-01  0.34991638216E-01  0.00000000000E+00 0. -1.
</event>
<event>
 5   0  0.3590931E+07  0.9118800E+02  0.7546771E-02  0.1180000E+00
      -11   -1    0    0    0    0  0.00000000000E+00  0.00000000000E+00  0.34996269501E-01  0.35000000000E-01  0.51099999109E-03 0.  1.
       11   -1    0    0    0    0 -0.00000000000E+00 -0.00000000000E+00 -0.34996269501E-01  0.35000000000E-01  0.51099999109E-03 0. -1.
       22    1    1    2    0    0 -0.11513815003E-01  0.42253467137E-02 -0.30461013970E-01  0.32837400366E-01  0.00000000000E+00 0. -1.
       22    1    1    2    0    0  0.90030331987E-02 -0.26415060362E-02  0.34620093680E-02  0.10000883450E-01  0.00000000000E+00 0.  1.
       22    1    1    2    0    0  0.25107818045E-02 -0.15838406774E-02  0.26999004601E-01  0.27161716183E-01  0.00000000000E+00 0.  1.
</event>
<event>
 5   0  0.3590931E+07  0.9118800E+02  0.7546771E-02  0.1180000E+00
      -11   -1    0    0    0    0  0.00000000000E+00  0.00000000000E+00  0.34996269501E-01  0.35000000000E-01  0.51099999109E-03 0.  1.
       11   -1    0    0    0    0 -0.00000000000E+00 -0.00000000000E+00 -0.34996269501E-01  0.35000000000E-01  0.51099999109E-03 0.  1.
       22    1    1    2    0    0  0.16606522683E-02  0.50817756573E-03 -0.34298863890E-01  0.34342802368E-01  0.00000000000E+00 0.  1.
       22    1    1    2    0    0 -0.14896005460E-02 -0.97918149892E-03  0.34859618655E-01  0.34905167510E-01  0.00000000000E+00 0.  1.
       22    1    1    2    0    0 -0.17105172230E-03  0.47100393319E-03 -0.56075476488E-03  0.75203012115E-03  0.00000000000E+00 0.  1.
</event>
<event>
 5   0  0.3590931E+07  0.9118800E+02  0.7546771E-02  0.1180000E+00
      -11   -1    0    0    0    0  0.00000000000E+00  0.00000000000E+00  0.34996269501E-01  0.35000000000E-01  0.51099999109E-03 0. -1.
       11   -1    0    0    0    0 -0.00000000000E+00 -0.00000000000E+00 -0.34996269501E-01  0.35000000000E-01  0.51099999109E-03 0.  1.
       22    1    1    2    0    0 -0.44944832896E-02  0.15792991920E-01  0.30868441457E-01  0.34963976488E-01  0.00000000000E+00 0. -1.
       22    1    1    2    0    0  0.19004491915E-03 -0.10345320416E-04 -0.60250813462E-03  0.63185453171E-03  0.00000000000E+00 0.  1.
       22    1    1    2    0    0  0.43044383705E-02 -0.15782646599E-01 -0.30265933323E-01  0.34404168981E-01  0.00000000000E+00 0.  1.
</event>
<event>
 5   0  0.3590931E+07  0.9118800E+02  0.7546771E-02  0.1180000E+00
      -11   -1    0    0    0    0  0.00000000000E+00  0.00000000000E+00  0.34996269501E-01  0.35000000000E-01  0.51099999109E-03 0.  1.
       11   -1    0    0    0    0 -0.00000000000E+00 -0.00000000000E+00 -0.34996269501E-01  0.35000000000E-01  0.51099999109E-03 0. -1.
       22    1    1    2    0    0  0.10075968321E-06  0.12871828822E-06  0.58853709192E-06  0.61081651914E-06  0.00000000000E+00 0. -1.
       22    1    1    2    0    0 -0.47324010449E-02  0.28004359519E-02  0.34564726731E-01  0.34999405640E-01  0.00000000000E+00 0.  1.
       22    1    1    2    0    0  0.47323002852E-02 -0.28005646702E-02 -0.34565315268E-01  0.34999983543E-01  0.00000000000E+00 0. -1.
</event>
<event>
 5   0  0.3590931E+07  0.9118800E+02  0.7546771E-02  0.1180000E+00
      -11   -1    0    0    0    0  0.00000000000E+00  0.00000000000E+00  0.34996269501E-01  0.35000000000E-01  0.51099999109E-03 0. -1.
       11   -1    0    0    0    0 -0.00000000000E+00 -0.00000000000E+00 -0.34996269501E-01  0.35000000000E-01  0.51099999109E-03 0.  1.
       22    1    1    2    0    0  0.62990553521E-07  0.35236399951E-07  0.63785257173E-07  0.96322233918E-07  0.00000000000E+00 0.  1.
       22    1    1    2    0    0 -0.21230593806E-02  0.34786523449E-02 -0.34761910965E-01  0.34999983674E-01  0.00000000000E+00 0.  1.
       22    1    1    2    0    0  0.21229963900E-02 -0.34786875813E-02  0.34761847179E-01  0.34999920004E-01  0.00000000000E+00 0. -1.
</event>
<event>
 5   0  0.3590931E+07  0.9118800E+02  0.7546771E-02  0.1180000E+00
      -11   -1    0    0    0    0  0.00000000000E+00  0.00000000000E+00  0.34996269501E-01  0.35000000000E-01  0.51099999109E-03 0. -1.
       11   -1    0    0    0    0 -0.00000000000E+00 -0.00000000000E+00 -0.34996269501E-01  0.35000000000E-01  0.51099999109E-03 0.  1.
       22    1    1    2    0    0  0.10143406985E-02  0.75008533414E-02  0.51834986986E-02  0.91738948468E-02  0.00000000000E+00 0. -1.
       22    1    1    2    0    0 -0.58704895792E-02  0.44894839744E-02  0.26018991304E-01  0.27048216627E-01  0.00000000000E+00 0. -1.
       22    1    1    2    0    0  0.48561488807E-02 -0.11990337316E-01 -0.31202490002E-01  0.33777888526E-01  0.00000000000E+00 0.  1.
</event>
<event>
 5   0  0.3590931E+07  0.9118800E+02  0.7546771E-02  0.1180000E+00
      -11   -1    0    0    0    0  0.00000000000E+00  0.00000000000E+00  0.34996269501E-01  0.35000000000E-01  0.51099999109E-03 0.  1.
       11   -1    0    0    0    0 -0.00000000000E+00 -0.00000000000E+00 -0.34996269501E-01  0.35000000000E-01  0.51099999109E-03 0. -1.
       22    1    1    2    0    0  0.25686508010E-02 -0.31090318235E-03 -0.31449794226E-01  0.31556048304E-01  0.00000000000E+00 0. -1.
       22    1    1    2    0    0 -0.65361691147E-04 -0.65508565488E-05 -0.34512164012E-02  0.34518414958E-02  0.00000000000E+00 0.  1.
       22    1    1    2    0    0 -0.25032891099E-02  0.31745403889E-03  0.34901010627E-01  0.34992110200E-01  0.00000000000E+00 0.  1.
</event>
<event>
 5   0  0.3590931E+07  0.9118800E+02  0.7546771E-02  0.1180000E+00
      -11   -1    0    0    0    0  0.00000000000E+00  0.00000000000E+00  0.34996269501E-01  0.35000000000E-01  0.51099999109E-03 0.  1.
       11   -1    0    0    0    0 -0.00000000000E+00 -0.00000000000E+00 -0.34996269501E-01  0.35000000000E-01  0.51099999109E-03 0. -1.
       22    1    1    2    0    0 -0.17286468679E-02 -0.10145330059E-02 -0.33872151361E-01  0.33931403376E-01  0.00000000000E+00 0. -1.
       22    1    1    2    0    0  0.14479848973E-02  0.12421551183E-02  0.34913884098E-01  0.34965967918E-01  0.00000000000E+00 0.  1.
       22    1    1    2    0    0  0.28066197059E-03 -0.22762211237E-03 -0.10417327373E-02  0.11026287062E-02  0.00000000000E+00 0. -1.
</event>
<event>
 5   0  0.3590931E+07  0.9118800E+02  0.7546771E-02  0.1180000E+00
      -11   -1    0    0    0    0  0.00000000000E+00  0.00000000000E+00  0.34996269501E-01  0.35000000000E-01  0.51099999109E-03 0.  1.
       11   -1    0    0    0    0 -0.00000000000E+00 -0.00000000000E+00 -0.34996269501E-01  0.35000000000E-01  0.51099999109E-03 0.  1.
       22    1    1    2    0    0  0.36884744946E-02 -0.93289379227E-03  0.60136658547E-03  0.38518536700E-02  0.00000000000E+00 0. -1.
       22    1    1    2    0    0 -0.50682078133E-02 -0.10039392951E-03 -0.33159338147E-01  0.33544575057E-01  0.00000000000E+00 0.  1.
       22    1    1    2    0    0  0.13797333188E-02  0.10332877218E-02  0.32557971562E-01  0.32603571273E-01  0.00000000000E+00 0.  1.
</event>
<event>
 5   0  0.3590931E+07  0.9118800E+02  0.7546771E-02  0.1180000E+00
      -11   -1    0    0    0    0  0.00000000000E+00  0.00000000000E+00  0.34996269501E-01  0.35000000000E-01  0.51099999109E-03 0. -1.
       11   -1    0    0    0    0 -0.00000000000E+00 -0.00000000000E+00 -0.34996269501E-01  0.35000000000E-01  0.51099999109E-03 0.  1.
       22    1    1    2    0    0 -0.12074929020E-02  0.10723725617E-02  0.34959761031E-01  0.34997041495E-01  0.00000000000E+00 0. -1.
       22    1    1    2    0    0  0.37238494928E-05 -0.11699027387E-05  0.17891952857E-05  0.42938266422E-05  0.00000000000E+00 0.  1.
       22    1    1    2    0    0  0.12037690525E-02 -0.10712026590E-02 -0.34961550226E-01  0.34998664679E-01  0.00000000000E+00 0.  1.
</event>
<event>
 5   0  0.3590931E+07  0.9118800E+02  0.7546771E-02  0.1180000E+00
      -11   -1    0    0    0    0  0.00000000000E+00  0.00000000000E+00  0.34996269501E-01  0.35000000000E-01  0.51099999109E-03 0.  1.
       11   -1    0    0    0    0 -0.00000000000E+00 -0.00000000000E+00 -0.34996269501E-01  0.35000000000E-01  0.51099999109E-03 0. -1.
       22    1    1    2    0    0 -0.11366665529E-01  0.78772799156E-02  0.26720996666E-01  0.30087610190E-01  0.00000000000E+00 0.  1.
       22    1    1    2    0    0  0.10345670272E-01  0.67814802714E-02 -0.42822807594E-02  0.13090427669E-01  0.00000000000E+00 0. -1.
       22    1    1    2    0    0  0.10209952574E-02 -0.14658760187E-01 -0.22438715907E-01  0.26821962141E-01  0.00000000000E+00 0. -1.
</event>
<event>
 5   0  0.3590931E+07  0.9118800E+02  0.7546771E-02  0.1180000E+00
      -11   -1    0    0    0    0  0.00000000000E+00  0.00000000000E+00  0.34996269501E-01  0.35000000000E-01  0.51099999109E-03 0.  1.
       11   -1    0    0    0    0 -0.00000000000E+00 -0.00000000000E+00 -0.34996269501E-01  0.35000000000E-01  0.51099999109E-03 0. -1.
       22    1    1    2    0    0  0.22374840074E-02  0.72412536979E-02 -0.34168974352E-01  0.34999441396E-01  0.00000000000E+00 0. -1.
       22    1    1    2    0    0 -0.22361307260E-02 -0.72421680245E-02  0.34168130522E-01  0.34998720286E-01  0.00000000000E+00 0.  1.
       22    1    1    2    0    0 -0.13532813649E-05  0.91432662873E-06  0.84383006034E-06  0.18383179288E-05  0.00000000000E+00 0.  1.
</event>
<event>
 5   0  0.3590931E+07  0.9118800E+02  0.7546771E-02  0.1180000E+00
      -11   -1    0    0    0    0  0.00000000000E+00  0.00000000000E+00  0.34996269501E-01  0.35000000000E-01  0.51099999109E-03 0. -1.
       11   -1    0    0    0    0 -0.00000000000E+00 -0.00000000000E+00 -0.34996269501E-01  0.35000000000E-01  0.51099999109E-03 0.  1.
       22    1    1    2    0    0  0.15457503155E-02  0.34942947235E-01  0.12622153095E-02  0.34999887043E-01  0.00000000000E+00 0. -1.
       22    1    1    2    0    0 -0.15457428065E-02 -0.34942976751E-01 -0.12624028666E-02  0.34999922944E-01  0.00000000000E+00 0.  1.
       22    1    1    2    0    0 -0.75089307926E-08  0.29516082793E-07  0.18755710618E-06  0.19001381861E-06  0.00000000000E+00 0. -1.
</event>
<event>
 5   0  0.3590931E+07  0.9118800E+02  0.7546771E-02  0.1180000E+00
      -11   -1    0    0    0    0  0.00000000000E+00  0.00000000000E+00  0.34996269501E-01  0.35000000000E-01  0.51099999109E-03 0.  1.
       11   -1    0    0    0    0 -0.00000000000E+00 -0.00000000000E+00 -0.34996269501E-01  0.35000000000E-01  0.51099999109E-03 0. -1.
       22    1    1    2    0    0  0.16604965975E-01  0.23400902820E-01 -0.20040185352E-01  0.34999088228E-01  0.00000000000E+00 0. -1.
       22    1    1    2    0    0 -0.16604422726E-01 -0.23400518177E-01  0.20034810717E-01  0.34995496074E-01  0.00000000000E+00 0.  1.
       22    1    1    2    0    0 -0.54324848832E-06 -0.38464316842E-06  0.53746356789E-05  0.54156973668E-05  0.00000000000E+00 0.  1.
</event>
<event>
 5   0  0.3590931E+07  0.9118800E+02  0.7546771E-02  0.1180000E+00
      -11   -1    0    0    0    0  0.00000000000E+00  0.00000000000E+00  0.34996269501E-01  0.35000000000E-01  0.51099999109E-03 0. -1.
       11   -1    0    0    0    0 -0.00000000000E+00 -0.00000000000E+00 -0.34996269501E-01  0.35000000000E-01  0.51099999109E-03 0.  1.
       22    1    1    2    0    0 -0.43708332525E-02 -0.68414250168E-02 -0.24388768890E-01  0.25704500142E-01  0.00000000000E+00 0.  1.
       22    1    1    2    0    0 -0.12351624462E-01  0.84485612987E-02  0.22998570218E-01  0.27438568602E-01  0.00000000000E+00 0. -1.
       22    1    1    2    0    0  0.16722457714E-01 -0.16071362819E-02  0.13901986720E-02  0.16856931256E-01  0.00000000000E+00 0.  1.
</event>
<event>
 5   0  0.3590931E+07  0.9118800E+02  0.7546771E-02  0.1180000E+00
      -11   -1    0    0    0    0  0.00000000000E+00  0.00000000000E+00  0.34996269501E-01  0.35000000000E-01  0.51099999109E-03 0.  1.
       11   -1    0    0    0    0 -0.00000000000E+00 -0.00000000000E+00 -0.34996269501E-01  0.35000000000E-01  0.51099999109E-03 0. -1.
       22    1    1    2    0    0  0.23771035021E-01  0.12071426869E-01  0.22676129319E-01  0.34999832765E-01  0.00000000000E+00 0.  1.
       22    1    1    2    0    0 -0.23771030294E-01 -0.12071608245E-01 -0.22676232106E-01  0.34999958706E-01  0.00000000000E+00 0. -1.
       22    1    1    2    0    0 -0.47272802319E-08  0.18137568440E-06  0.10278659386E-06  0.20852954214E-06  0.00000000000E+00 0. -1.
</event>
<event>
 5   0  0.3590931E+07  0.9118800E+02  0.7546771E-02  0.1180000E+00
      -11   -1    0    0    0    0  0.00000000000E+00  0.00000000000E+00  0.34996269501E-01  0.35000000000E-01  0.51099999109E-03 0. -1.
       11   -1    0    0    0    0 -0.00000000000E+00 -0.00000000000E+00 -0.34996269501E-01  0.35000000000E-01  0.51099999109E-03 0.  1.
       22    1    1    2    0    0 -0.51376206486E-04  0.62177539858E-06 -0.10872360251E-02  0.10884493904E-02  0.00000000000E+00 0.  1.
       22    1    1    2    0    0 -0.96187731519E-02 -0.44880173180E-02 -0.32228686189E-01  0.33931568043E-01  0.00000000000E+00 0.  1.
       22    1    1    2    0    0  0.96701493584E-02  0.44873955426E-02  0.33315922214E-01  0.34979982566E-01  0.00000000000E+00 0. -1.
</event>
<event>
 5   0  0.3590931E+07  0.9118800E+02  0.7546771E-02  0.1180000E+00
      -11   -1    0    0    0    0  0.00000000000E+00  0.00000000000E+00  0.34996269501E-01  0.35000000000E-01  0.51099999109E-03 0. -1.
       11   -1    0    0    0    0 -0.00000000000E+00 -0.00000000000E+00 -0.34996269501E-01  0.35000000000E-01  0.51099999109E-03 0.  1.
       22    1    1    2    0    0  0.21636830171E-02  0.39503586057E-02  0.34708785223E-01  0.34999808984E-01  0.00000000000E+00 0. -1.
       22    1    1    2    0    0 -0.12383276051E-06  0.19169824216E-06  0.11392477136E-06  0.25507179803E-06  0.00000000000E+00 0.  1.
       22    1    1    2    0    0 -0.21635591843E-02 -0.39505503039E-02 -0.34708899147E-01  0.34999935944E-01  0.00000000000E+00 0.  1.
</event>
