<event>
 5   0  0.1517601E+07  0.9118800E+02  0.7546771E-02  0.1180000E+00
      -11   -1    0    0    0    0  0.00000000000E+00  0.00000000000E+00  0.34996269501E-01  0.35000000000E-01  0.51099999109E-03 0. -1.
       11   -1    0    0    0    0 -0.00000000000E+00 -0.00000000000E+00 -0.34996269501E-01  0.35000000000E-01  0.51099999109E-03 0.  1.
       22    1    1    2    0    0  0.50092886420E-04  0.56801447369E-04  0.96489059284E-03  0.96785823231E-03  0.00000000000E+00 0.  1.
       22    1    1    2    0    0  0.29932318424E-02  0.21606954711E-02  0.33831643617E-01  0.34032457326E-01  0.00000000000E+00 0. -1.
       22    1    1    2    0    0 -0.30433247288E-02 -0.22174969184E-02 -0.34796534210E-01  0.34999684442E-01  0.00000000000E+00 0.  1.
</event>
<event>
 5   0  0.1517601E+07  0.9118800E+02  0.7546771E-02  0.1180000E+00
      -11   -1    0    0    0    0  0.00000000000E+00  0.00000000000E+00  0.34996269501E-01  0.35000000000E-01  0.51099999109E-03 0. -1.
       11   -1    0    0    0    0 -0.00000000000E+00 -0.00000000000E+00 -0.34996269501E-01  0.35000000000E-01  0.51099999109E-03 0.  1.
       22    1    1    2    0    0 -0.81923476637E-02  0.93617615493E-02 -0.32713860083E-01  0.34999339723E-01  0.00000000000E+00 0.  1.
       22    1    1    2    0    0 -0.18730484683E-05  0.31997719407E-06  0.25515016674E-05  0.31813293963E-05  0.00000000000E+00 0. -1.
       22    1    1    2    0    0  0.81942207121E-02 -0.93620815265E-02  0.32711308581E-01  0.34997478947E-01  0.00000000000E+00 0. -1.
</event>
<event>
 5   0  0.1517601E+07  0.9118800E+02  0.7546771E-02  0.1180000E+00
      -11   -1    0    0    0    0  0.00000000000E+00  0.00000000000E+00  0.34996269501E-01  0.35000000000E-01  0.51099999109E-03 0.  1.
       11   -1    0    0    0    0 -0.00000000000E+00 -0.00000000000E+00 -0.34996269501E-01  0.35000000000E-01  0.51099999109E-03 0. -1.
       22    1    1    2    0    0 -0.84498899828E-02  0.82338318236E-02  0.31939789529E-01  0.34049181816E-01  0.00000000000E+00 0.  1.
       22    1    1    2    0    0  0.84451476216E-02 -0.80894316617E-02 -0.32932716294E-01  0.34947435177E-01  0.00000000000E+00 0. -1.
       22    1    1    2    0    0  0.47423612059E-05 -0.14440016195E-03  0.99292676535E-03  0.10033830067E-02  0.00000000000E+00 0.  1.
</event>
<event>
 5   0  0.1517601E+07  0.9118800E+02  0.7546771E-02  0.1180000E+00
      -11   -1    0    0    0    0  0.00000000000E+00  0.00000000000E+00  0.34996269501E-01  0.35000000000E-01  0.51099999109E-03 0.  1.
       11   -1    0    0    0    0 -0.00000000000E+00 -0.00000000000E+00 -0.34996269501E-01  0.35000000000E-01  0.51099999109E-03 0. -1.
       22    1    1    2    0    0  0.11665867674E-01  0.87031666113E-02 -0.30744021908E-01  0.34015179858E-01  0.00000000000E+00 0. -1.
       22    1    1    2    0    0  0.75537827373E-03 -0.28716307483E-03  0.11758977143E-01  0.11786712961E-01  0.00000000000E+00 0.  1.
       22    1    1    2    0    0 -0.12421245948E-01 -0.84160035364E-02  0.18985044765E-01  0.24198107182E-01  0.00000000000E+00 0.  1.
</event>
<event>
 5   0  0.1517601E+07  0.9118800E+02  0.7546771E-02  0.1180000E+00
      -11   -1    0    0    0    0  0.00000000000E+00  0.00000000000E+00  0.34996269501E-01  0.35000000000E-01  0.51099999109E-03 0. -1.
       11   -1    0    0    0    0 -0.00000000000E+00 -0.00000000000E+00 -0.34996269501E-01  0.35000000000E-01  0.51099999109E-03 0.  1.
       22    1    1    2    0    0  0.98514789666E-02  0.96687500756E-03 -0.33571021058E-01  0.34999999143E-01  0.00000000000E+00 0.  1.
       22    1    1    2    0    0 -0.98514816947E-02 -0.96687456053E-03  0.33571002638E-01  0.34999982230E-01  0.00000000000E+00 0. -1.
       22    1    1    2    0    0  0.27280621669E-08 -0.44702542119E-09  0.18420675117E-07  0.18626954305E-07  0.00000000000E+00 0. -1.
</event>
<event>
 5   0  0.1517601E+07  0.9118800E+02  0.7546771E-02  0.1180000E+00
      -11   -1    0    0    0    0  0.00000000000E+00  0.00000000000E+00  0.34996269501E-01  0.35000000000E-01  0.51099999109E-03 0.  1.
       11   -1    0    0    0    0 -0.00000000000E+00 -0.00000000000E+00 -0.34996269501E-01  0.35000000000E-01  0.51099999109E-03 0. -1.
       22    1    1    2    0    0  0.66881567062E-02  0.27571058722E-02  0.83003881305E-02  0.11010427605E-01  0.00000000000E+00 0. -1.
       22    1    1    2    0    0 -0.19827261905E-02  0.17454102386E-01  0.18224098970E-01  0.25311947308E-01  0.00000000000E+00 0.  1.
       22    1    1    2    0    0 -0.47054305157E-02 -0.20211208258E-01 -0.26524487101E-01  0.33677625088E-01  0.00000000000E+00 0. -1.
</event>
<event>
 5   0  0.1517601E+07  0.9118800E+02  0.7546771E-02  0.1180000E+00
      -11   -1    0    0    0    0  0.00000000000E+00  0.00000000000E+00  0.34996269501E-01  0.35000000000E-01  0.51099999109E-03 0. -1.
       11   -1    0    0    0    0 -0.00000000000E+00 -0.00000000000E+00 -0.34996269501E-01  0.35000000000E-01  0.51099999109E-03 0. -1.
       22    1    1    2    0    0 -0.53603545864E-09 -0.13986008581E-06  0.18622609804E-05  0.18675055797E-05  0.00000000000E+00 0. -1.
       22    1    1    2    0    0 -0.44883527138E-03  0.22618309195E-03  0.34994526541E-01  0.34998135661E-01  0.00000000000E+00 0. -1.
       22    1    1    2    0    0  0.44883580741E-03 -0.22604323187E-03 -0.34996388802E-01  0.34999996833E-01  0.00000000000E+00 0. -1.
</event>
<event>
 5   0  0.1517601E+07  0.9118800E+02  0.7546771E-02  0.1180000E+00
      -11   -1    0    0    0    0  0.00000000000E+00  0.00000000000E+00  0.34996269501E-01  0.35000000000E-01  0.51099999109E-03 0.  1.
       11   -1    0    0    0    0 -0.00000000000E+00 -0.00000000000E+00 -0.34996269501E-01  0.35000000000E-01  0.51099999109E-03 0. -1.
       22    1    1    2    0    0  0.12913605779E-01 -0.11791707782E-01  0.27921497425E-01  0.32945646224E-01  0.00000000000E+00 0.  1.
       22    1    1    2    0    0 -0.25093287401E-02  0.40841685589E-03  0.21039419880E-02  0.33000162035E-02  0.00000000000E+00 0. -1.
       22    1    1    2    0    0 -0.10404277039E-01  0.11383290926E-01 -0.30025439413E-01  0.33754337573E-01  0.00000000000E+00 0. -1.
</event>
<event>
 5   0  0.1517601E+07  0.9118800E+02  0.7546771E-02  0.1180000E+00
      -11   -1    0    0    0    0  0.00000000000E+00  0.00000000000E+00  0.34996269501E-01  0.35000000000E-01  0.51099999109E-03 0.  1.
       11   -1    0    0    0    0 -0.00000000000E+00 -0.00000000000E+00 -0.34996269501E-01  0.35000000000E-01  0.51099999109E-03 0. -1.
       22    1    1    2    0    0 -0.54025879606E-03 -0.74729890855E-03 -0.75082787743E-03  0.11891500019E-02  0.00000000000E+00 0. -1.
       22    1    1    2    0    0  0.36061221323E-02 -0.43410037865E-02 -0.33538875431E-01  0.34010360126E-01  0.00000000000E+00 0. -1.
       22    1    1    2    0    0 -0.30658633362E-02  0.50883026950E-02  0.34289703309E-01  0.34800489872E-01  0.00000000000E+00 0.  1.
</event>
<event>
 5   0  0.1517601E+07  0.9118800E+02  0.7546771E-02  0.1180000E+00
      -11   -1    0    0    0    0  0.00000000000E+00  0.00000000000E+00  0.34996269501E-01  0.35000000000E-01  0.51099999109E-03 0. -1.
       11   -1    0    0    0    0 -0.00000000000E+00 -0.00000000000E+00 -0.34996269501E-01  0.35000000000E-01  0.51099999109E-03 0.  1.
       22    1    1    2    0    0  0.36422187261E-03  0.26626028166E-02 -0.34896673028E-01  0.34999998568E-01  0.00000000000E+00 0.  1.
       22    1    1    2    0    0 -0.36423684146E-03 -0.26625992077E-02  0.34895704312E-01  0.34999032593E-01  0.00000000000E+00 0. -1.
       22    1    1    2    0    0  0.14968852835E-07 -0.36089506176E-08  0.96871679628E-06  0.96883916233E-06  0.00000000000E+00 0. -1.
</event>
<event>
 5   0  0.1517601E+07  0.9118800E+02  0.7546771E-02  0.1180000E+00
      -11   -1    0    0    0    0  0.00000000000E+00  0.00000000000E+00  0.34996269501E-01  0.35000000000E-01  0.51099999109E-03 0. -1.
       11   -1    0    0    0    0 -0.00000000000E+00 -0.00000000000E+00 -0.34996269501E-01  0.35000000000E-01  0.51099999109E-03 0.  1.
       22    1    1    2    0    0  0.28402824376E-05  0.21012460773E-04  0.14701929810E-04  0.25801888540E-04  0.00000000000E+00 0. -1.
       22    1    1    2    0    0  0.62627739669E-02 -0.34409205133E-02 -0.34257739685E-01  0.34995071082E-01  0.00000000000E+00 0.  1.
       22    1    1    2    0    0 -0.62656142493E-02  0.34199080525E-02  0.34243037755E-01  0.34979127029E-01  0.00000000000E+00 0. -1.
</event>
<event>
 5   0  0.1517601E+07  0.9118800E+02  0.7546771E-02  0.1180000E+00
      -11   -1    0    0    0    0  0.00000000000E+00  0.00000000000E+00  0.34996269501E-01  0.35000000000E-01  0.51099999109E-03 0. -1.
       11   -1    0    0    0    0 -0.00000000000E+00 -0.00000000000E+00 -0.34996269501E-01  0.35000000000E-01  0.51099999109E-03 0.  1.
       22    1    1    2    0    0 -0.97744851276E-02  0.32077240658E-01 -0.60831056345E-02  0.34080699844E-01  0.00000000000E+00 0.  1.
       22    1    1    2    0    0  0.48153203740E-04 -0.10991181084E-04 -0.15510066177E-02  0.15517928551E-02  0.00000000000E+00 0.  1.
       22    1    1    2    0    0  0.97263319239E-02 -0.32066249476E-01  0.76341122522E-02  0.34367507301E-01  0.00000000000E+00 0. -1.
</event>
<event>
 5   0  0.1517601E+07  0.9118800E+02  0.7546771E-02  0.1180000E+00
      -11   -1    0    0    0    0  0.00000000000E+00  0.00000000000E+00  0.34996269501E-01  0.35000000000E-01  0.51099999109E-03 0.  1.
       11   -1    0    0    0    0 -0.00000000000E+00 -0.00000000000E+00 -0.34996269501E-01  0.35000000000E-01  0.51099999109E-03 0. -1.
       22    1    1    2    0    0 -0.11615620356E-01  0.65315677187E-02 -0.11121541679E-01  0.17357208948E-01  0.00000000000E+00 0. -1.
       22    1    1    2    0    0  0.16756290714E-02 -0.58941675710E-02 -0.19501001020E-01  0.20441085708E-01  0.00000000000E+00 0.  1.
       22    1    1    2    0    0  0.99399912849E-02 -0.63740014768E-03  0.30622542700E-01  0.32201705344E-01  0.00000000000E+00 0.  1.
</event>
<event>
 5   0  0.1517601E+07  0.9118800E+02  0.7546771E-02  0.1180000E+00
      -11   -1    0    0    0    0  0.00000000000E+00  0.00000000000E+00  0.34996269501E-01  0.35000000000E-01  0.51099999109E-03 0.  1.
       11   -1    0    0    0    0 -0.00000000000E+00 -0.00000000000E+00 -0.34996269501E-01  0.35000000000E-01  0.51099999109E-03 0.  1.
       22    1    1    2    0    0 -0.59009936054E-05  0.27804947452E-04  0.34840587868E-01  0.34840133524E-01  0.00000000000E+00 0.  1.
       22    1    1    2    0    0  0.35520896785E-09 -0.16737124874E-08 -0.34999195820E-01  0.34998731992E-01  0.00000000000E+00 0.  1.
       22    1    1    2    0    0  0.59006383965E-05 -0.27803273740E-04  0.15860795203E-03  0.16113448424E-03  0.00000000000E+00 0. -1.
</event>
<event>
 5   0  0.1517601E+07  0.9118800E+02  0.7546771E-02  0.1180000E+00
      -11   -1    0    0    0    0  0.00000000000E+00  0.00000000000E+00  0.34996269501E-01  0.35000000000E-01  0.51099999109E-03 0.  1.
       11   -1    0    0    0    0 -0.00000000000E+00 -0.00000000000E+00 -0.34996269501E-01  0.35000000000E-01  0.51099999109E-03 0. -1.
       22    1    1    2    0    0  0.42438742473E-05 -0.13134213358E-03 -0.61531116951E-03  0.62918725500E-03  0.00000000000E+00 0. -1.
       22    1    1    2    0    0  0.72442859595E-02  0.98628300809E-02 -0.32166281016E-01  0.34415472257E-01  0.00000000000E+00 0. -1.
       22    1    1    2    0    0 -0.72485298338E-02 -0.97314879473E-02  0.32781592186E-01  0.34955340488E-01  0.00000000000E+00 0.  1.
</event>
<event>
 5   0  0.1517601E+07  0.9118800E+02  0.7546771E-02  0.1180000E+00
      -11   -1    0    0    0    0  0.00000000000E+00  0.00000000000E+00  0.34996269501E-01  0.35000000000E-01  0.51099999109E-03 0.  1.
       11   -1    0    0    0    0 -0.00000000000E+00 -0.00000000000E+00 -0.34996269501E-01  0.35000000000E-01  0.51099999109E-03 0.  1.
       22    1    1    2    0    0 -0.50933951655E-03  0.11810452317E-02 -0.34976313288E-01  0.34999954083E-01  0.00000000000E+00 0.  1.
       22    1    1    2    0    0  0.16197112003E-06  0.10935683697E-05  0.12492783666E-04  0.12541601578E-04  0.00000000000E+00 0.  1.
       22    1    1    2    0    0  0.50917754543E-03 -0.11821388000E-02  0.34963820505E-01  0.34987504315E-01  0.00000000000E+00 0.  1.
</event>
<event>
 5   0  0.1517601E+07  0.9118800E+02  0.7546771E-02  0.1180000E+00
      -11   -1    0    0    0    0  0.00000000000E+00  0.00000000000E+00  0.34996269501E-01  0.35000000000E-01  0.51099999109E-03 0.  1.
       11   -1    0    0    0    0 -0.00000000000E+00 -0.00000000000E+00 -0.34996269501E-01  0.35000000000E-01  0.51099999109E-03 0. -1.
       22    1    1    2    0    0 -0.49876215564E-02 -0.32161070814E-01  0.12812166771E-01  0.34976598778E-01  0.00000000000E+00 0.  1.
       22    1    1    2    0    0 -0.56494570612E-06  0.33935252708E-05  0.36347806233E-04  0.36510247813E-04  0.00000000000E+00 0.  1.
       22    1    1    2    0    0  0.49881865021E-02  0.32157677289E-01 -0.12848514577E-01  0.34986890974E-01  0.00000000000E+00 0. -1.
</event>
<event>
 5   0  0.1517601E+07  0.9118800E+02  0.7546771E-02  0.1180000E+00
      -11   -1    0    0    0    0  0.00000000000E+00  0.00000000000E+00  0.34996269501E-01  0.35000000000E-01  0.51099999109E-03 0. -1.
       11   -1    0    0    0    0 -0.00000000000E+00 -0.00000000000E+00 -0.34996269501E-01  0.35000000000E-01  0.51099999109E-03 0.  1.
       22    1    1    2    0    0  0.22150260010E-01 -0.98184596046E-02  0.25250029967E-01  0.34994287832E-01  0.00000000000E+00 0. -1.
       22    1    1    2    0    0 -0.14309472668E-05  0.43501113079E-06  0.71428277540E-05  0.72977279401E-05  0.00000000000E+00 0. -1.
       22    1    1    2    0    0 -0.22148829063E-01  0.98180245934E-02 -0.25257172795E-01  0.34998414440E-01  0.00000000000E+00 0.  1.
</event>
<event>
 5   0  0.1517601E+07  0.9118800E+02  0.7546771E-02  0.1180000E+00
      -11   -1    0    0    0    0  0.00000000000E+00  0.00000000000E+00  0.34996269501E-01  0.35000000000E-01  0.51099999109E-03 0.  1.
       11   -1    0    0    0    0 -0.00000000000E+00 -0.00000000000E+00 -0.34996269501E-01  0.35000000000E-01  0.51099999109E-03 0. -1.
       22    1    1    2    0    0  0.23434492657E-03 -0.65825368648E-03 -0.34993022462E-01  0.34999997664E-01  0.00000000000E+00 0. -1.
       22    1    1    2    0    0 -0.23435152765E-03  0.65825342180E-03  0.34993020067E-01  0.34999995309E-01  0.00000000000E+00 0.  1.
       22    1    1    2    0    0  0.66010799929E-08  0.26468243312E-09  0.23951683323E-08  0.70271719207E-08  0.00000000000E+00 0.  1.
</event>
<event>
 5   0  0.1517601E+07  0.9118800E+02  0.7546771E-02  0.1180000E+00
      -11   -1    0    0    0    0  0.00000000000E+00  0.00000000000E+00  0.34996269501E-01  0.35000000000E-01  0.51099999109E-03 0. -1.
       11   -1    0    0    0    0 -0.00000000000E+00 -0.00000000000E+00 -0.34996269501E-01  0.35000000000E-01  0.51099999109E-03 0. -1.
       22    1    1    2    0    0  0.72052847973E-03  0.39404054048E-03 -0.34969992630E-01  0.34979634272E-01  0.00000000000E+00 0. -1.
       22    1    1    2    0    0 -0.65788458917E-03 -0.42136539363E-03  0.34934723026E-01  0.34943457668E-01  0.00000000000E+00 0. -1.
       22    1    1    2    0    0 -0.62643890564E-04  0.27324853149E-04  0.35269604882E-04  0.76908059741E-04  0.00000000000E+00 0. -1.
</event>
<event>
 5   0  0.1517601E+07  0.9118800E+02  0.7546771E-02  0.1180000E+00
      -11   -1    0    0    0    0  0.00000000000E+00  0.00000000000E+00  0.34996269501E-01  0.35000000000E-01  0.51099999109E-03 0.  1.
       11   -1    0    0    0    0 -0.00000000000E+00 -0.00000000000E+00 -0.34996269501E-01  0.35000000000E-01  0.51099999109E-03 0. -1.
       22    1    1    2    0    0  0.70995804036E-02 -0.39667625830E-03  0.34253066285E-01  0.34983338089E-01  0.00000000000E+00 0.  1.
       22    1    1    2    0    0 -0.47975339382E-04 -0.12161589579E-03 -0.21228524190E-03  0.24931322313E-03  0.00000000000E+00 0. -1.
       22    1    1    2    0    0 -0.70516050642E-02  0.51829215408E-03 -0.34040781043E-01  0.34767348687E-01  0.00000000000E+00 0. -1.
</event>
<event>
 5   0  0.1517601E+07  0.9118800E+02  0.7546771E-02  0.1180000E+00
      -11   -1    0    0    0    0  0.00000000000E+00  0.00000000000E+00  0.34996269501E-01  0.35000000000E-01  0.51099999109E-03 0. -1.
       11   -1    0    0    0    0 -0.00000000000E+00 -0.00000000000E+00 -0.34996269501E-01  0.35000000000E-01  0.51099999109E-03 0.  1.
       22    1    1    2    0    0  0.46771992771E-02  0.56905097052E-03 -0.27131648172E-01  0.27537725843E-01  0.00000000000E+00 0.  1.
       22    1    1    2    0    0 -0.47699737238E-02 -0.22933943211E-03  0.34628963702E-01  0.34956692821E-01  0.00000000000E+00 0. -1.
       22    1    1    2    0    0  0.92774446715E-04 -0.33971153841E-03 -0.74973155300E-02  0.75055813355E-02  0.00000000000E+00 0.  1.
</event>
<event>
 5   0  0.1517601E+07  0.9118800E+02  0.7546771E-02  0.1180000E+00
      -11   -1    0    0    0    0  0.00000000000E+00  0.00000000000E+00  0.34996269501E-01  0.35000000000E-01  0.51099999109E-03 0. -1.
       11   -1    0    0    0    0 -0.00000000000E+00 -0.00000000000E+00 -0.34996269501E-01  0.35000000000E-01  0.51099999109E-03 0.  1.
       22    1    1    2    0    0  0.17967896986E-05 -0.30066719943E-05  0.11448304938E-04  0.11972143319E-04  0.00000000000E+00 0. -1.
       22    1    1    2    0    0  0.71889133427E-02 -0.30578158991E-02 -0.34116252962E-01  0.34999277554E-01  0.00000000000E+00 0.  1.
       22    1    1    2    0    0 -0.71907101324E-02  0.30608225711E-02  0.34104804657E-01  0.34988750303E-01  0.00000000000E+00 0. -1.
</event>
<event>
 5   0  0.1517601E+07  0.9118800E+02  0.7546771E-02  0.1180000E+00
      -11   -1    0    0    0    0  0.00000000000E+00  0.00000000000E+00  0.34996269501E-01  0.35000000000E-01  0.51099999109E-03 0. -1.
       11   -1    0    0    0    0 -0.00000000000E+00 -0.00000000000E+00 -0.34996269501E-01  0.35000000000E-01  0.51099999109E-03 0.  1.
       22    1    1    2    0    0 -0.26382222593E-01 -0.67545431007E-02 -0.21983075645E-01  0.34998587632E-01  0.00000000000E+00 0.  1.
       22    1    1    2    0    0  0.26496809306E-05  0.95958918217E-06  0.12626684116E-04  0.12937340229E-04  0.00000000000E+00 0. -1.
       22    1    1    2    0    0  0.26379572912E-01  0.67535835115E-02  0.21970448961E-01  0.34988475028E-01  0.00000000000E+00 0. -1.
</event>
<event>
 5   0  0.1517601E+07  0.9118800E+02  0.7546771E-02  0.1180000E+00
      -11   -1    0    0    0    0  0.00000000000E+00  0.00000000000E+00  0.34996269501E-01  0.35000000000E-01  0.51099999109E-03 0. -1.
       11   -1    0    0    0    0 -0.00000000000E+00 -0.00000000000E+00 -0.34996269501E-01  0.35000000000E-01  0.51099999109E-03 0.  1.
       22    1    1    2    0    0 -0.76563949759E-02  0.11464260579E-02  0.34133046199E-01  0.34999993137E-01  0.00000000000E+00 0. -1.
       22    1    1    2    0    0  0.76563956025E-02 -0.11464308821E-02 -0.34133052117E-01  0.34999999203E-01  0.00000000000E+00 0.  1.
       22    1    1    2    0    0 -0.62659840464E-09  0.48242234194E-08  0.59176975864E-08  0.76606071486E-08  0.00000000000E+00 0. -1.
</event>
<event>
 5   0  0.1517601E+07  0.9118800E+02  0.7546771E-02  0.1180000E+00
      -11   -1    0    0    0    0  0.00000000000E+00  0.00000000000E+00  0.34996269501E-01  0.35000000000E-01  0.51099999109E-03 0.  1.
       11   -1    0    0    0    0 -0.00000000000E+00 -0.00000000000E+00 -0.34996269501E-01  0.35000000000E-01  0.51099999109E-03 0. -1.
       22    1    1    2    0    0 -0.24179556165E-02  0.20809803253E-01  0.22346268419E-01  0.30630868957E-01  0.00000000000E+00 0.  1.
       22    1    1    2    0    0  0.10325859186E-01 -0.10401575729E-01 -0.14592813915E-02  0.14729074912E-01  0.00000000000E+00 0. -1.
       22    1    1    2    0    0 -0.79079035693E-02 -0.10408227524E-01 -0.20886987028E-01  0.24640056131E-01  0.00000000000E+00 0. -1.
</event>
<event>
 5   0  0.1517601E+07  0.9118800E+02  0.7546771E-02  0.1180000E+00
      -11   -1    0    0    0    0  0.00000000000E+00  0.00000000000E+00  0.34996269501E-01  0.35000000000E-01  0.51099999109E-03 0. -1.
       11   -1    0    0    0    0 -0.00000000000E+00 -0.00000000000E+00 -0.34996269501E-01  0.35000000000E-01  0.51099999109E-03 0.  1.
       22    1    1    2    0    0 -0.27241580765E-02 -0.56253896877E-02 -0.34437339255E-01  0.34999948304E-01  0.00000000000E+00 0.  1.
       22    1    1    2    0    0  0.31520547387E-06 -0.19307455919E-06  0.76534389053E-06  0.84993149544E-06  0.00000000000E+00 0.  1.
       22    1    1    2    0    0  0.27238428711E-02  0.56255827623E-02  0.34436573911E-01  0.34999201764E-01  0.00000000000E+00 0. -1.
</event>
<event>
 5   0  0.1517601E+07  0.9118800E+02  0.7546771E-02  0.1180000E+00
      -11   -1    0    0    0    0  0.00000000000E+00  0.00000000000E+00  0.34996269501E-01  0.35000000000E-01  0.51099999109E-03 0.  1.
       11   -1    0    0    0    0 -0.00000000000E+00 -0.00000000000E+00 -0.34996269501E-01  0.35000000000E-01  0.51099999109E-03 0. -1.
       22    1    1    2    0    0 -0.15829370365E-02 -0.67661112085E-04 -0.34964002930E-01  0.34999882408E-01  0.00000000000E+00 0. -1.
       22    1    1    2    0    0 -0.18769527631E-06 -0.78004663994E-06  0.13260997039E-05  0.15499169984E-05  0.00000000000E+00 0.  1.
       22    1    1    2    0    0  0.15831247318E-02  0.68441158725E-04  0.34962676831E-01  0.34998567675E-01  0.00000000000E+00 0.  1.
</event>
<event>
 5   0  0.1517601E+07  0.9118800E+02  0.7546771E-02  0.1180000E+00
      -11   -1    0    0    0    0  0.00000000000E+00  0.00000000000E+00  0.34996269501E-01  0.35000000000E-01  0.51099999109E-03 0.  1.
       11   -1    0    0    0    0 -0.00000000000E+00 -0.00000000000E+00 -0.34996269501E-01  0.35000000000E-01  0.51099999109E-03 0. -1.
       22    1    1    2    0    0 -0.74114055966E-02  0.23585955527E-01 -0.24637449477E-01  0.34903153837E-01  0.00000000000E+00 0. -1.
       22    1    1    2    0    0  0.24740966432E-04 -0.11280184226E-03  0.89515404663E-03  0.90257251134E-03  0.00000000000E+00 0. -1.
       22    1    1    2    0    0  0.73866646301E-02 -0.23473153685E-01  0.23742295430E-01  0.34194273652E-01  0.00000000000E+00 0.  1.
</event>
<event>
 5   0  0.1517601E+07  0.9118800E+02  0.7546771E-02  0.1180000E+00
      -11   -1    0    0    0    0  0.00000000000E+00  0.00000000000E+00  0.34996269501E-01  0.35000000000E-01  0.51099999109E-03 0. -1.
       11   -1    0    0    0    0 -0.00000000000E+00 -0.00000000000E+00 -0.34996269501E-01  0.35000000000E-01  0.51099999109E-03 0.  1.
       22    1    1    2    0    0  0.54743809249E-02 -0.12600784275E-01  0.74542969073E-02  0.15630583906E-01  0.00000000000E+00 0. -1.
       22    1    1    2    0    0 -0.12179461554E-01 -0.12695696791E-01 -0.18886567203E-01  0.25811284770E-01  0.00000000000E+00 0.  1.
       22    1    1    2    0    0  0.67050806293E-02  0.25296481066E-01  0.11432270296E-01  0.28558131324E-01  0.00000000000E+00 0. -1.
</event>
<event>
 5   0  0.1517601E+07  0.9118800E+02  0.7546771E-02  0.1180000E+00
      -11   -1    0    0    0    0  0.00000000000E+00  0.00000000000E+00  0.34996269501E-01  0.35000000000E-01  0.51099999109E-03 0.  1.
       11   -1    0    0    0    0 -0.00000000000E+00 -0.00000000000E+00 -0.34996269501E-01  0.35000000000E-01  0.51099999109E-03 0. -1.
       22    1    1    2    0    0  0.21724476560E-03  0.51617143569E-04 -0.41072040111E-02  0.41132693088E-02  0.00000000000E+00 0. -1.
       22    1    1    2    0    0 -0.34938990613E-02  0.67357602716E-02  0.34114082403E-01  0.34947795571E-01  0.00000000000E+00 0.  1.
       22    1    1    2    0    0  0.32766542957E-02 -0.67873774152E-02 -0.30006878392E-01  0.30938935120E-01  0.00000000000E+00 0. -1.
</event>
<event>
 5   0  0.1517601E+07  0.9118800E+02  0.7546771E-02  0.1180000E+00
      -11   -1    0    0    0    0  0.00000000000E+00  0.00000000000E+00  0.34996269501E-01  0.35000000000E-01  0.51099999109E-03 0.  1.
       11   -1    0    0    0    0 -0.00000000000E+00 -0.00000000000E+00 -0.34996269501E-01  0.35000000000E-01  0.51099999109E-03 0. -1.
       22    1    1    2    0    0 -0.37583188813E-02 -0.42419887494E-02  0.34537301500E-01  0.34999208909E-01  0.00000000000E+00 0.  1.
       22    1    1    2    0    0 -0.28763323526E-07 -0.50710340742E-07  0.79061737922E-06  0.79276396724E-06  0.00000000000E+00 0. -1.
       22    1    1    2    0    0  0.37583476446E-02  0.42420394598E-02 -0.34538092117E-01  0.34999998327E-01  0.00000000000E+00 0. -1.
</event>
<event>
 5   0  0.1517601E+07  0.9118800E+02  0.7546771E-02  0.1180000E+00
      -11   -1    0    0    0    0  0.00000000000E+00  0.00000000000E+00  0.34996269501E-01  0.35000000000E-01  0.51099999109E-03 0. -1.
       11   -1    0    0    0    0 -0.00000000000E+00 -0.00000000000E+00 -0.34996269501E-01  0.35000000000E-01  0.51099999109E-03 0. -1.
       22    1    1    2    0    0 -0.00000000000E+00 -0.00000000000E+00  0.25559053937E-01  0.25556427161E-01  0.00000000000E+00 0. -1.
       22    1    1    2    0    0  0.68226608856E-02 -0.51328033622E-02  0.68391324159E-02  0.10939291756E-01  0.00000000000E+00 0.  1.
       22    1    1    2    0    0 -0.68226608856E-02  0.51328033622E-02 -0.32398186353E-01  0.33504281083E-01  0.00000000000E+00 0. -1.
</event>
<event>
 5   0  0.1517601E+07  0.9118800E+02  0.7546771E-02  0.1180000E+00
      -11   -1    0    0    0    0  0.00000000000E+00  0.00000000000E+00  0.34996269501E-01  0.35000000000E-01  0.51099999109E-03 0. -1.
       11   -1    0    0    0    0 -0.00000000000E+00 -0.00000000000E+00 -0.34996269501E-01  0.35000000000E-01  0.51099999109E-03 0.  1.
       22    1    1    2    0    0 -0.12153387820E-02  0.16391169094E-02 -0.34940464808E-01  0.34999997623E-01  0.00000000000E+00 0.  1.
       22    1    1    2    0    0  0.12153533699E-02 -0.16391479697E-02  0.34940217845E-01  0.34999753041E-01  0.00000000000E+00 0. -1.
       22    1    1    2    0    0 -0.14587898286E-07  0.31060232738E-07  0.24696328578E-06  0.24933593676E-06  0.00000000000E+00 0. -1.
</event>
<event>
 5   0  0.1517601E+07  0.9118800E+02  0.7546771E-02  0.1180000E+00
      -11   -1    0    0    0    0  0.00000000000E+00  0.00000000000E+00  0.34996269501E-01  0.35000000000E-01  0.51099999109E-03 0. -1.
       11   -1    0    0    0    0 -0.00000000000E+00 -0.00000000000E+00 -0.34996269501E-01  0.35000000000E-01  0.51099999109E-03 0.  1.
       22    1    1    2    0    0 -0.43065683031E-02 -0.70411971729E-02 -0.33465115271E-01  0.34467940586E-01  0.00000000000E+00 0.  1.
       22    1    1    2    0    0 -0.76548880542E-04  0.20521277436E-03 -0.53371272835E-03  0.57690665646E-03  0.00000000000E+00 0.  1.
       22    1    1    2    0    0  0.43831171836E-02  0.68359843985E-02  0.33998827999E-01  0.34955152757E-01  0.00000000000E+00 0. -1.
</event>
<event>
 5   0  0.1517601E+07  0.9118800E+02  0.7546771E-02  0.1180000E+00
      -11   -1    0    0    0    0  0.00000000000E+00  0.00000000000E+00  0.34996269501E-01  0.35000000000E-01  0.51099999109E-03 0. -1.
       11   -1    0    0    0    0 -0.00000000000E+00 -0.00000000000E+00 -0.34996269501E-01  0.35000000000E-01  0.51099999109E-03 0.  1.
       22    1    1    2    0    0 -0.92845426878E-02  0.78457077401E-02  0.32746716682E-01  0.34930005959E-01  0.00000000000E+00 0. -1.
       22    1    1    2    0    0 -0.10193019006E-04  0.38519483896E-05  0.69970166133E-04  0.70813553022E-04  0.00000000000E+00 0. -1.
       22    1    1    2    0    0  0.92947357068E-02 -0.78495596885E-02 -0.32816686848E-01  0.34999180488E-01  0.00000000000E+00 0.  1.
</event>
<event>
 5   0  0.1517601E+07  0.9118800E+02  0.7546771E-02  0.1180000E+00
      -11   -1    0    0    0    0  0.00000000000E+00  0.00000000000E+00  0.34996269501E-01  0.35000000000E-01  0.51099999109E-03 0. -1.
       11   -1    0    0    0    0 -0.00000000000E+00 -0.00000000000E+00 -0.34996269501E-01  0.35000000000E-01  0.51099999109E-03 0.  1.
       22    1    1    2    0    0 -0.10216692535E-01 -0.15755301360E-01  0.29513643776E-01  0.34980930466E-01  0.00000000000E+00 0. -1.
       22    1    1    2    0    0  0.10214287477E-01  0.15766148372E-01 -0.29299591226E-01  0.34804728834E-01  0.00000000000E+00 0.  1.
       22    1    1    2    0    0  0.24050582169E-05 -0.10847012488E-04 -0.21405254966E-03  0.21434070076E-03  0.00000000000E+00 0.  1.
</event>
<event>
 5   0  0.1517601E+07  0.9118800E+02  0.7546771E-02  0.1180000E+00
      -11   -1    0    0    0    0  0.00000000000E+00  0.00000000000E+00  0.34996269501E-01  0.35000000000E-01  0.51099999109E-03 0. -1.
       11   -1    0    0    0    0 -0.00000000000E+00 -0.00000000000E+00 -0.34996269501E-01  0.35000000000E-01  0.51099999109E-03 0. -1.
       22    1    1    2    0    0 -0.28370582066E-05 -0.26185097473E-06  0.83371896586E-04  0.83420564644E-04  0.00000000000E+00 0. -1.
       22    1    1    2    0    0  0.24303854709E-03 -0.67842823148E-03  0.34909182336E-01  0.34916619882E-01  0.00000000000E+00 0. -1.
       22    1    1    2    0    0 -0.24020148888E-03  0.67869008245E-03 -0.34992554233E-01  0.34999959553E-01  0.00000000000E+00 0. -1.
</event>
<event>
 5   0  0.1517601E+07  0.9118800E+02  0.7546771E-02  0.1180000E+00
      -11   -1    0    0    0    0  0.00000000000E+00  0.00000000000E+00  0.34996269501E-01  0.35000000000E-01  0.51099999109E-03 0. -1.
       11   -1    0    0    0    0 -0.00000000000E+00 -0.00000000000E+00 -0.34996269501E-01  0.35000000000E-01  0.51099999109E-03 0.  1.
       22    1    1    2    0    0 -0.13618829032E-04 -0.15394337682E-02 -0.34814906190E-01  0.34848927312E-01  0.00000000000E+00 0.  1.
       22    1    1    2    0    0  0.18357410313E-04  0.16493174604E-02  0.34943188583E-01  0.34982095612E-01  0.00000000000E+00 0. -1.
       22    1    1    2    0    0 -0.47385812806E-05 -0.10988369211E-03 -0.12828239251E-03  0.16897707588E-03  0.00000000000E+00 0. -1.
</event>
<event>
 5   0  0.1517601E+07  0.9118800E+02  0.7546771E-02  0.1180000E+00
      -11   -1    0    0    0    0  0.00000000000E+00  0.00000000000E+00  0.34996269501E-01  0.35000000000E-01  0.51099999109E-03 0.  1.
       11   -1    0    0    0    0 -0.00000000000E+00 -0.00000000000E+00 -0.34996269501E-01  0.35000000000E-01  0.51099999109E-03 0. -1.
       22    1    1    2    0    0  0.38889251162E-06  0.35716976242E-06  0.70512096288E-06  0.88091043646E-06  0.00000000000E+00 0.  1.
       22    1    1    2    0    0  0.26902904675E-03  0.15251668892E-03  0.34997838409E-01  0.34999204723E-01  0.00000000000E+00 0.  1.
       22    1    1    2    0    0 -0.26941793927E-03 -0.15287385868E-03 -0.34998543530E-01  0.34999914366E-01  0.00000000000E+00 0. -1.
</event>
<event>
 5   0  0.1517601E+07  0.9118800E+02  0.7546771E-02  0.1180000E+00
      -11   -1    0    0    0    0  0.00000000000E+00  0.00000000000E+00  0.34996269501E-01  0.35000000000E-01  0.51099999109E-03 0.  1.
       11   -1    0    0    0    0 -0.00000000000E+00 -0.00000000000E+00 -0.34996269501E-01  0.35000000000E-01  0.51099999109E-03 0. -1.
       22    1    1    2    0    0 -0.24831952341E-02  0.68285422951E-02 -0.34237376924E-01  0.34999903244E-01  0.00000000000E+00 0. -1.
       22    1    1    2    0    0  0.24844442000E-02 -0.68241181230E-02  0.34211662230E-01  0.34973974376E-01  0.00000000000E+00 0.  1.
       22    1    1    2    0    0 -0.12489658931E-05 -0.44241721414E-05  0.25714694208E-04  0.26122379546E-04  0.00000000000E+00 0. -1.
</event>
<event>
 5   0  0.1517601E+07  0.9118800E+02  0.7546771E-02  0.1180000E+00
      -11   -1    0    0    0    0  0.00000000000E+00  0.00000000000E+00  0.34996269501E-01  0.35000000000E-01  0.51099999109E-03 0.  1.
       11   -1    0    0    0    0 -0.00000000000E+00 -0.00000000000E+00 -0.34996269501E-01  0.35000000000E-01  0.51099999109E-03 0. -1.
       22    1    1    2    0    0  0.13055558496E-02  0.45054473697E-03  0.61998340082E-02  0.63518035521E-02  0.00000000000E+00 0.  1.
       22    1    1    2    0    0  0.69735217336E-02 -0.89353400967E-02 -0.32704636708E-01  0.34613054910E-01  0.00000000000E+00 0. -1.
       22    1    1    2    0    0 -0.82790775831E-02  0.84847953597E-02  0.26504802700E-01  0.29035141537E-01  0.00000000000E+00 0.  1.
</event>
<event>
 5   0  0.1517601E+07  0.9118800E+02  0.7546771E-02  0.1180000E+00
      -11   -1    0    0    0    0  0.00000000000E+00  0.00000000000E+00  0.34996269501E-01  0.35000000000E-01  0.51099999109E-03 0. -1.
       11   -1    0    0    0    0 -0.00000000000E+00 -0.00000000000E+00 -0.34996269501E-01  0.35000000000E-01  0.51099999109E-03 0.  1.
       22    1    1    2    0    0 -0.21207825097E-02  0.11634890386E-02 -0.21321605938E-02  0.32245207387E-02  0.00000000000E+00 0. -1.
       22    1    1    2    0    0  0.12065673010E-01 -0.61301610920E-02 -0.29926433363E-01  0.32844341278E-01  0.00000000000E+00 0.  1.
       22    1    1    2    0    0 -0.99448905000E-02  0.49666720534E-02  0.32058593957E-01  0.33931137983E-01  0.00000000000E+00 0. -1.
</event>
<event>
 5   0  0.1517601E+07  0.9118800E+02  0.7546771E-02  0.1180000E+00
      -11   -1    0    0    0    0  0.00000000000E+00  0.00000000000E+00  0.34996269501E-01  0.35000000000E-01  0.51099999109E-03 0.  1.
       11   -1    0    0    0    0 -0.00000000000E+00 -0.00000000000E+00 -0.34996269501E-01  0.35000000000E-01  0.51099999109E-03 0. -1.
       22    1    1    2    0    0  0.70448911403E-04 -0.19488597161E-03  0.35418642071E-03  0.41035546988E-03  0.00000000000E+00 0.  1.
       22    1    1    2    0    0  0.67518744691E-02 -0.72483058931E-02  0.33149347550E-01  0.34597759900E-01  0.00000000000E+00 0.  1.
       22    1    1    2    0    0 -0.68223233805E-02  0.74431918647E-02 -0.33503533970E-01  0.34991884630E-01  0.00000000000E+00 0. -1.
</event>
<event>
 5   0  0.1517601E+07  0.9118800E+02  0.7546771E-02  0.1180000E+00
      -11   -1    0    0    0    0  0.00000000000E+00  0.00000000000E+00  0.34996269501E-01  0.35000000000E-01  0.51099999109E-03 0. -1.
       11   -1    0    0    0    0 -0.00000000000E+00 -0.00000000000E+00 -0.34996269501E-01  0.35000000000E-01  0.51099999109E-03 0. -1.
       22    1    1    2    0    0  0.10341787294E-05  0.57382137971E-07  0.20989525337E-05  0.23406025064E-05  0.00000000000E+00 0.  1.
       22    1    1    2    0    0 -0.15117653829E-03 -0.16829118731E-02  0.34956972292E-01  0.34997785052E-01  0.00000000000E+00 0. -1.
       22    1    1    2    0    0  0.15014235956E-03  0.16828544909E-02 -0.34959071244E-01  0.34999874346E-01  0.00000000000E+00 0. -1.
</event>
<event>
 5   0  0.1517601E+07  0.9118800E+02  0.7546771E-02  0.1180000E+00
      -11   -1    0    0    0    0  0.00000000000E+00  0.00000000000E+00  0.34996269501E-01  0.35000000000E-01  0.51099999109E-03 0. -1.
       11   -1    0    0    0    0 -0.00000000000E+00 -0.00000000000E+00 -0.34996269501E-01  0.35000000000E-01  0.51099999109E-03 0.  1.
       22    1    1    2    0    0 -0.56303738422E-03  0.67863906842E-03 -0.34863275353E-01  0.34874425163E-01  0.00000000000E+00 0.  1.
       22    1    1    2    0    0  0.38665922100E-03  0.28111088458E-03  0.33153378505E-01  0.33156824862E-01  0.00000000000E+00 0. -1.
       22    1    1    2    0    0  0.17637816322E-03 -0.95974995300E-03  0.17098968488E-02  0.19687499745E-02  0.00000000000E+00 0.  1.
</event>
<event>
 5   0  0.1517601E+07  0.9118800E+02  0.7546771E-02  0.1180000E+00
      -11   -1    0    0    0    0  0.00000000000E+00  0.00000000000E+00  0.34996269501E-01  0.35000000000E-01  0.51099999109E-03 0.  1.
       11   -1    0    0    0    0 -0.00000000000E+00 -0.00000000000E+00 -0.34996269501E-01  0.35000000000E-01  0.51099999109E-03 0. -1.
       22    1    1    2    0    0 -0.27541778135E-02  0.14516075758E-02 -0.27166694162E-01  0.27344504597E-01  0.00000000000E+00 0. -1.
       22    1    1    2    0    0  0.58589415607E-02  0.12851092255E-01  0.23740407088E-01  0.27623987711E-01  0.00000000000E+00 0.  1.
       22    1    1    2    0    0 -0.31047637472E-02 -0.14302699831E-01  0.34262870741E-02  0.15031507692E-01  0.00000000000E+00 0. -1.
</event>
<event>
 5   0  0.1517601E+07  0.9118800E+02  0.7546771E-02  0.1180000E+00
      -11   -1    0    0    0    0  0.00000000000E+00  0.00000000000E+00  0.34996269501E-01  0.35000000000E-01  0.51099999109E-03 0.  1.
       11   -1    0    0    0    0 -0.00000000000E+00 -0.00000000000E+00 -0.34996269501E-01  0.35000000000E-01  0.51099999109E-03 0. -1.
       22    1    1    2    0    0  0.20245747801E-02 -0.28872077702E-02 -0.34639736972E-01  0.34818762891E-01  0.00000000000E+00 0. -1.
       22    1    1    2    0    0  0.28660838023E-04  0.57153926387E-04 -0.17761198303E-03  0.18876978427E-03  0.00000000000E+00 0. -1.
       22    1    1    2    0    0 -0.20532356182E-02  0.28300538438E-02  0.34817348955E-01  0.34992467325E-01  0.00000000000E+00 0.  1.
</event>
<event>
 5   0  0.1517601E+07  0.9118800E+02  0.7546771E-02  0.1180000E+00
      -11   -1    0    0    0    0  0.00000000000E+00  0.00000000000E+00  0.34996269501E-01  0.35000000000E-01  0.51099999109E-03 0. -1.
       11   -1    0    0    0    0 -0.00000000000E+00 -0.00000000000E+00 -0.34996269501E-01  0.35000000000E-01  0.51099999109E-03 0.  1.
       22    1    1    2    0    0 -0.15015936178E-02 -0.85694393928E-02  0.33852782470E-01  0.34952839024E-01  0.00000000000E+00 0. -1.
       22    1    1    2    0    0  0.30786051101E-03  0.12949361453E-02 -0.98023889332E-02  0.98923438331E-02  0.00000000000E+00 0.  1.
       22    1    1    2    0    0  0.11937331068E-02  0.72745032475E-02 -0.24050393536E-01  0.25154817143E-01  0.00000000000E+00 0.  1.
</event>
<event>
 5   0  0.1517601E+07  0.9118800E+02  0.7546771E-02  0.1180000E+00
      -11   -1    0    0    0    0  0.00000000000E+00  0.00000000000E+00  0.34996269501E-01  0.35000000000E-01  0.51099999109E-03 0.  1.
       11   -1    0    0    0    0 -0.00000000000E+00 -0.00000000000E+00 -0.34996269501E-01  0.35000000000E-01  0.51099999109E-03 0. -1.
       22    1    1    2    0    0  0.70614537541E-02 -0.31074280989E-01  0.14474606697E-01  0.34999847245E-01  0.00000000000E+00 0. -1.
       22    1    1    2    0    0 -0.70614102285E-02  0.31074409826E-01 -0.14474696294E-01  0.34999989903E-01  0.00000000000E+00 0.  1.
       22    1    1    2    0    0 -0.43525623657E-07 -0.12883614111E-06  0.89596982466E-07  0.16285223498E-06  0.00000000000E+00 0. -1.
</event>
<event>
 5   0  0.1517601E+07  0.9118800E+02  0.7546771E-02  0.1180000E+00
      -11   -1    0    0    0    0  0.00000000000E+00  0.00000000000E+00  0.34996269501E-01  0.35000000000E-01  0.51099999109E-03 0.  1.
       11   -1    0    0    0    0 -0.00000000000E+00 -0.00000000000E+00 -0.34996269501E-01  0.35000000000E-01  0.51099999109E-03 0. -1.
       22    1    1    2    0    0  0.23245658982E-01  0.13002573991E-01 -0.22705917939E-01  0.34999804305E-01  0.00000000000E+00 0. -1.
       22    1    1    2    0    0 -0.23245870212E-01 -0.13002436833E-01  0.22705982692E-01  0.34999935650E-01  0.00000000000E+00 0.  1.
       22    1    1    2    0    0  0.21122961410E-06 -0.13715846240E-06 -0.64753245426E-07  0.26004495087E-06  0.00000000000E+00 0.  1.
</event>
<event>
 5   0  0.2668996E+07  0.9118800E+02  0.7546771E-02  0.1180000E+00
      -11   -1    0    0    0    0  0.00000000000E+00  0.00000000000E+00  0.34996269501E-01  0.35000000000E-01  0.51099999109E-03 0.  1.
       11   -1    0    0    0    0 -0.00000000000E+00 -0.00000000000E+00 -0.34996269501E-01  0.35000000000E-01  0.51099999109E-03 0.  1.
       22    1    1    2    0    0  0.12957130158E-08  0.21221810146E-07  0.35002375662E-01  0.34999833267E-01  0.00000000000E+00 0.  1.
       22    1    1    2    0    0 -0.12955969011E-08 -0.21219908363E-07  0.16604965485E-06  0.16740505058E-06  0.00000000000E+00 0. -1.
       22    1    1    2    0    0 -0.11611474375E-12 -0.19017830469E-11 -0.35002541711E-01  0.34999999328E-01  0.00000000000E+00 0.  1.
</event>
<event>
 5   0  0.1517601E+07  0.9118800E+02  0.7546771E-02  0.1180000E+00
      -11   -1    0    0    0    0  0.00000000000E+00  0.00000000000E+00  0.34996269501E-01  0.35000000000E-01  0.51099999109E-03 0.  1.
       11   -1    0    0    0    0 -0.00000000000E+00 -0.00000000000E+00 -0.34996269501E-01  0.35000000000E-01  0.51099999109E-03 0. -1.
       22    1    1    2    0    0 -0.63831794000E-03  0.38340527895E-03  0.34991561849E-01  0.34999483568E-01  0.00000000000E+00 0.  1.
       22    1    1    2    0    0 -0.18454223932E-06  0.46739622010E-06  0.38898875095E-06  0.63547408525E-06  0.00000000000E+00 0.  1.
       22    1    1    2    0    0  0.63850248224E-03 -0.38387267517E-03 -0.34991950838E-01  0.34999880958E-01  0.00000000000E+00 0. -1.
</event>
<event>
 5   0  0.1517601E+07  0.9118800E+02  0.7546771E-02  0.1180000E+00
      -11   -1    0    0    0    0  0.00000000000E+00  0.00000000000E+00  0.34996269501E-01  0.35000000000E-01  0.51099999109E-03 0. -1.
       11   -1    0    0    0    0 -0.00000000000E+00 -0.00000000000E+00 -0.34996269501E-01  0.35000000000E-01  0.51099999109E-03 0.  1.
       22    1    1    2    0    0 -0.14949673878E-03  0.58183193208E-04 -0.38210173247E-03  0.41441077789E-03  0.00000000000E+00 0.  1.
       22    1    1    2    0    0 -0.12104164812E-02  0.39708814016E-02 -0.34347080399E-01  0.34597036565E-01  0.00000000000E+00 0.  1.
       22    1    1    2    0    0  0.13599132200E-02 -0.40290645948E-02  0.34729182132E-01  0.34988552657E-01  0.00000000000E+00 0. -1.
</event>
<event>
 5   0  0.1517601E+07  0.9118800E+02  0.7546771E-02  0.1180000E+00
      -11   -1    0    0    0    0  0.00000000000E+00  0.00000000000E+00  0.34996269501E-01  0.35000000000E-01  0.51099999109E-03 0. -1.
       11   -1    0    0    0    0 -0.00000000000E+00 -0.00000000000E+00 -0.34996269501E-01  0.35000000000E-01  0.51099999109E-03 0.  1.
       22    1    1    2    0    0  0.18778701844E-06  0.13451759763E-08  0.11290471010E-05  0.11445580501E-05  0.00000000000E+00 0. -1.
       22    1    1    2    0    0  0.51430517395E-02  0.66988167584E-03  0.34612428000E-01  0.34998855620E-01  0.00000000000E+00 0. -1.
       22    1    1    2    0    0 -0.51432395265E-02 -0.66988302102E-03 -0.34613557047E-01  0.34999999822E-01  0.00000000000E+00 0.  1.
</event>
<event>
 5   0  0.1517601E+07  0.9118800E+02  0.7546771E-02  0.1180000E+00
      -11   -1    0    0    0    0  0.00000000000E+00  0.00000000000E+00  0.34996269501E-01  0.35000000000E-01  0.51099999109E-03 0.  1.
       11   -1    0    0    0    0 -0.00000000000E+00 -0.00000000000E+00 -0.34996269501E-01  0.35000000000E-01  0.51099999109E-03 0. -1.
       22    1    1    2    0    0 -0.64504413818E-05 -0.56739928421E-06  0.76879578641E-03  0.76882305594E-03  0.00000000000E+00 0. -1.
       22    1    1    2    0    0 -0.64064473777E-02  0.79615681722E-03  0.33623203308E-01  0.34237351451E-01  0.00000000000E+00 0.  1.
       22    1    1    2    0    0  0.64128978190E-02 -0.79558941793E-03 -0.34391999094E-01  0.34993825493E-01  0.00000000000E+00 0. -1.
</event>
<event>
 5   0  0.1517601E+07  0.9118800E+02  0.7546771E-02  0.1180000E+00
      -11   -1    0    0    0    0  0.00000000000E+00  0.00000000000E+00  0.34996269501E-01  0.35000000000E-01  0.51099999109E-03 0.  1.
       11   -1    0    0    0    0 -0.00000000000E+00 -0.00000000000E+00 -0.34996269501E-01  0.35000000000E-01  0.51099999109E-03 0. -1.
       22    1    1    2    0    0  0.17905888610E-02  0.23306593453E-03  0.34928422187E-01  0.34975065471E-01  0.00000000000E+00 0.  1.
       22    1    1    2    0    0 -0.73616112813E-03  0.33915222428E-03 -0.26411465940E-01  0.26423899987E-01  0.00000000000E+00 0. -1.
       22    1    1    2    0    0 -0.10544277328E-02 -0.57221815881E-03 -0.85169562473E-02  0.86010345414E-02  0.00000000000E+00 0. -1.
</event>
<event>
 5   0  0.1517601E+07  0.9118800E+02  0.7546771E-02  0.1180000E+00
      -11   -1    0    0    0    0  0.00000000000E+00  0.00000000000E+00  0.34996269501E-01  0.35000000000E-01  0.51099999109E-03 0.  1.
       11   -1    0    0    0    0 -0.00000000000E+00 -0.00000000000E+00 -0.34996269501E-01  0.35000000000E-01  0.51099999109E-03 0. -1.
       22    1    1    2    0    0  0.24525036859E-04 -0.15476522703E-04  0.11956655047E-04  0.31368165198E-04  0.00000000000E+00 0.  1.
       22    1    1    2    0    0  0.98316857100E-02 -0.30168648855E-01  0.14704039275E-01  0.34971676949E-01  0.00000000000E+00 0.  1.
       22    1    1    2    0    0 -0.98562107469E-02  0.30184125377E-01 -0.14715995930E-01  0.34996954886E-01  0.00000000000E+00 0. -1.
</event>
<event>
 5   0  0.1517601E+07  0.9118800E+02  0.7546771E-02  0.1180000E+00
      -11   -1    0    0    0    0  0.00000000000E+00  0.00000000000E+00  0.34996269501E-01  0.35000000000E-01  0.51099999109E-03 0.  1.
       11   -1    0    0    0    0 -0.00000000000E+00 -0.00000000000E+00 -0.34996269501E-01  0.35000000000E-01  0.51099999109E-03 0. -1.
       22    1    1    2    0    0 -0.58115124113E-06  0.11154795901E-05  0.12900347871E-05  0.18017272915E-05  0.00000000000E+00 0. -1.
       22    1    1    2    0    0  0.59604464557E-03 -0.11669895157E-02  0.34973937953E-01  0.34998478105E-01  0.00000000000E+00 0.  1.
       22    1    1    2    0    0 -0.59546349433E-03  0.11658740361E-02 -0.34975227987E-01  0.34999720168E-01  0.00000000000E+00 0. -1.
</event>
<event>
 5   0  0.1517601E+07  0.9118800E+02  0.7546771E-02  0.1180000E+00
      -11   -1    0    0    0    0  0.00000000000E+00  0.00000000000E+00  0.34996269501E-01  0.35000000000E-01  0.51099999109E-03 0. -1.
       11   -1    0    0    0    0 -0.00000000000E+00 -0.00000000000E+00 -0.34996269501E-01  0.35000000000E-01  0.51099999109E-03 0.  1.
       22    1    1    2    0    0 -0.27246747903E-01  0.19407562662E-01  0.10293309669E-01  0.34999871196E-01  0.00000000000E+00 0. -1.
       22    1    1    2    0    0 -0.11954177141E-06 -0.11789778560E-06  0.10622609270E-06  0.19868091436E-06  0.00000000000E+00 0. -1.
       22    1    1    2    0    0  0.27246867445E-01 -0.19407444764E-01 -0.10293415896E-01  0.34999930123E-01  0.00000000000E+00 0.  1.
</event>
<event>
 5   0  0.1517601E+07  0.9118800E+02  0.7546771E-02  0.1180000E+00
      -11   -1    0    0    0    0  0.00000000000E+00  0.00000000000E+00  0.34996269501E-01  0.35000000000E-01  0.51099999109E-03 0. -1.
       11   -1    0    0    0    0 -0.00000000000E+00 -0.00000000000E+00 -0.34996269501E-01  0.35000000000E-01  0.51099999109E-03 0.  1.
       22    1    1    2    0    0  0.80808652457E-03 -0.19187954600E-03 -0.16966226546E-01  0.16986543639E-01  0.00000000000E+00 0.  1.
       22    1    1    2    0    0 -0.86746506872E-02  0.76566292013E-03  0.33543460599E-01  0.34655440457E-01  0.00000000000E+00 0. -1.
       22    1    1    2    0    0  0.78665641626E-02 -0.57378337413E-03 -0.16577234054E-01  0.18358015905E-01  0.00000000000E+00 0.  1.
</event>
<event>
 5   0  0.1517601E+07  0.9118800E+02  0.7546771E-02  0.1180000E+00
      -11   -1    0    0    0    0  0.00000000000E+00  0.00000000000E+00  0.34996269501E-01  0.35000000000E-01  0.51099999109E-03 0. -1.
       11   -1    0    0    0    0 -0.00000000000E+00 -0.00000000000E+00 -0.34996269501E-01  0.35000000000E-01  0.51099999109E-03 0.  1.
       22    1    1    2    0    0 -0.10045226520E-01 -0.13791620650E-02  0.33417480588E-01  0.34921865252E-01  0.00000000000E+00 0. -1.
       22    1    1    2    0    0 -0.18224231312E-04 -0.56637003153E-04  0.64072500996E-04  0.87436594838E-04  0.00000000000E+00 0. -1.
       22    1    1    2    0    0  0.10063450751E-01  0.14357990682E-02 -0.33481553089E-01  0.34990698153E-01  0.00000000000E+00 0.  1.
</event>
<event>
 5   0  0.1517601E+07  0.9118800E+02  0.7546771E-02  0.1180000E+00
      -11   -1    0    0    0    0  0.00000000000E+00  0.00000000000E+00  0.34996269501E-01  0.35000000000E-01  0.51099999109E-03 0.  1.
       11   -1    0    0    0    0 -0.00000000000E+00 -0.00000000000E+00 -0.34996269501E-01  0.35000000000E-01  0.51099999109E-03 0. -1.
       22    1    1    2    0    0  0.50385313577E-04 -0.21130344868E-04 -0.36391765890E-03  0.36799624150E-03  0.00000000000E+00 0.  1.
       22    1    1    2    0    0  0.21388395359E-01 -0.30046837421E-02  0.27467533378E-01  0.34942194698E-01  0.00000000000E+00 0.  1.
       22    1    1    2    0    0 -0.21438780672E-01  0.30258140870E-02 -0.27103615720E-01  0.34689809061E-01  0.00000000000E+00 0. -1.
</event>
<event>
 5   0  0.1517601E+07  0.9118800E+02  0.7546771E-02  0.1180000E+00
      -11   -1    0    0    0    0  0.00000000000E+00  0.00000000000E+00  0.34996269501E-01  0.35000000000E-01  0.51099999109E-03 0. -1.
       11   -1    0    0    0    0 -0.00000000000E+00 -0.00000000000E+00 -0.34996269501E-01  0.35000000000E-01  0.51099999109E-03 0.  1.
       22    1    1    2    0    0  0.84475376844E-02 -0.26332737716E-01 -0.21452833755E-01  0.34999972067E-01  0.00000000000E+00 0.  1.
       22    1    1    2    0    0 -0.16135029613E-07  0.17034197589E-07  0.18364850784E-06  0.18514123663E-06  0.00000000000E+00 0.  1.
       22    1    1    2    0    0 -0.84475215493E-02  0.26332720682E-01  0.21452650107E-01  0.34999842792E-01  0.00000000000E+00 0. -1.
</event>
<event>
 5   0  0.1517601E+07  0.9118800E+02  0.7546771E-02  0.1180000E+00
      -11   -1    0    0    0    0  0.00000000000E+00  0.00000000000E+00  0.34996269501E-01  0.35000000000E-01  0.51099999109E-03 0. -1.
       11   -1    0    0    0    0 -0.00000000000E+00 -0.00000000000E+00 -0.34996269501E-01  0.35000000000E-01  0.51099999109E-03 0.  1.
       22    1    1    2    0    0 -0.11406209496E-01  0.24583337359E-01 -0.22143468152E-01  0.34996789461E-01  0.00000000000E+00 0.  1.
       22    1    1    2    0    0  0.11406080749E-01 -0.24573463251E-01  0.22147677143E-01  0.34992476006E-01  0.00000000000E+00 0. -1.
       22    1    1    2    0    0  0.12874683334E-06 -0.98741083331E-05 -0.42089915078E-05  0.10734533089E-04  0.00000000000E+00 0. -1.
</event>
<event>
 5   0  0.1517601E+07  0.9118800E+02  0.7546771E-02  0.1180000E+00
      -11   -1    0    0    0    0  0.00000000000E+00  0.00000000000E+00  0.34996269501E-01  0.35000000000E-01  0.51099999109E-03 0.  1.
       11   -1    0    0    0    0 -0.00000000000E+00 -0.00000000000E+00 -0.34996269501E-01  0.35000000000E-01  0.51099999109E-03 0. -1.
       22    1    1    2    0    0  0.29021053424E-02  0.15219161354E-02 -0.28909113464E-02  0.43698755765E-02  0.00000000000E+00 0.  1.
       22    1    1    2    0    0 -0.73620338693E-02  0.27197338465E-02 -0.30593799358E-01  0.31584443229E-01  0.00000000000E+00 0. -1.
       22    1    1    2    0    0  0.44599285269E-02 -0.42416499819E-02  0.33484710705E-01  0.34045681195E-01  0.00000000000E+00 0.  1.
</event>
<event>
 5   0  0.1517601E+07  0.9118800E+02  0.7546771E-02  0.1180000E+00
      -11   -1    0    0    0    0  0.00000000000E+00  0.00000000000E+00  0.34996269501E-01  0.35000000000E-01  0.51099999109E-03 0.  1.
       11   -1    0    0    0    0 -0.00000000000E+00 -0.00000000000E+00 -0.34996269501E-01  0.35000000000E-01  0.51099999109E-03 0. -1.
       22    1    1    2    0    0  0.57631013109E-04  0.63698432514E-03 -0.38132773964E-02  0.38665430124E-02  0.00000000000E+00 0.  1.
       22    1    1    2    0    0  0.54447261377E-03  0.42151440576E-04  0.34964625472E-01  0.34968889911E-01  0.00000000000E+00 0.  1.
       22    1    1    2    0    0 -0.60210362688E-03 -0.67913576572E-03 -0.31151348076E-01  0.31164567077E-01  0.00000000000E+00 0. -1.
</event>
<event>
 5   0  0.1517601E+07  0.9118800E+02  0.7546771E-02  0.1180000E+00
      -11   -1    0    0    0    0  0.00000000000E+00  0.00000000000E+00  0.34996269501E-01  0.35000000000E-01  0.51099999109E-03 0.  1.
       11   -1    0    0    0    0 -0.00000000000E+00 -0.00000000000E+00 -0.34996269501E-01  0.35000000000E-01  0.51099999109E-03 0.  1.
       22    1    1    2    0    0  0.23200393167E-04 -0.16567696116E-03  0.34981641610E-01  0.34982041634E-01  0.00000000000E+00 0.  1.
       22    1    1    2    0    0 -0.28916266646E-06 -0.55635132995E-06  0.17951771699E-04  0.17962718307E-04  0.00000000000E+00 0. -1.
       22    1    1    2    0    0 -0.22911230501E-04  0.16623331249E-03 -0.34999593382E-01  0.34999995648E-01  0.00000000000E+00 0.  1.
</event>
<event>
 5   0  0.1517601E+07  0.9118800E+02  0.7546771E-02  0.1180000E+00
      -11   -1    0    0    0    0  0.00000000000E+00  0.00000000000E+00  0.34996269501E-01  0.35000000000E-01  0.51099999109E-03 0. -1.
       11   -1    0    0    0    0 -0.00000000000E+00 -0.00000000000E+00 -0.34996269501E-01  0.35000000000E-01  0.51099999109E-03 0.  1.
       22    1    1    2    0    0  0.38348129409E-02 -0.19777258387E-02  0.32541485962E-01  0.32826292791E-01  0.00000000000E+00 0. -1.
       22    1    1    2    0    0 -0.19044073625E-04 -0.10833258196E-04  0.21832690459E-02  0.21833789783E-02  0.00000000000E+00 0.  1.
       22    1    1    2    0    0 -0.38157688673E-02  0.19885590969E-02 -0.34724755008E-01  0.34990328231E-01  0.00000000000E+00 0.  1.
</event>
<event>
 5   0  0.1517601E+07  0.9118800E+02  0.7546771E-02  0.1180000E+00
      -11   -1    0    0    0    0  0.00000000000E+00  0.00000000000E+00  0.34996269501E-01  0.35000000000E-01  0.51099999109E-03 0.  1.
       11   -1    0    0    0    0 -0.00000000000E+00 -0.00000000000E+00 -0.34996269501E-01  0.35000000000E-01  0.51099999109E-03 0. -1.
       22    1    1    2    0    0 -0.11212886953E-03  0.39096294169E-04  0.37248554666E-03  0.39095637361E-03  0.00000000000E+00 0. -1.
       22    1    1    2    0    0  0.10051522567E-03 -0.62070887944E-02  0.34063738163E-01  0.34624793317E-01  0.00000000000E+00 0.  1.
       22    1    1    2    0    0  0.11613643865E-04  0.61679925002E-02 -0.34436223709E-01  0.34984250310E-01  0.00000000000E+00 0. -1.
</event>
<event>
 5   0  0.1517601E+07  0.9118800E+02  0.7546771E-02  0.1180000E+00
      -11   -1    0    0    0    0  0.00000000000E+00  0.00000000000E+00  0.34996269501E-01  0.35000000000E-01  0.51099999109E-03 0. -1.
       11   -1    0    0    0    0 -0.00000000000E+00 -0.00000000000E+00 -0.34996269501E-01  0.35000000000E-01  0.51099999109E-03 0.  1.
       22    1    1    2    0    0 -0.97934545648E-04  0.54460073240E-05 -0.15241224361E-04  0.99262929370E-04  0.00000000000E+00 0.  1.
       22    1    1    2    0    0  0.31302866766E-02 -0.30963128056E-02  0.34684141735E-01  0.34962487549E-01  0.00000000000E+00 0. -1.
       22    1    1    2    0    0 -0.30323521309E-02  0.30908667983E-02 -0.34668900511E-01  0.34938249522E-01  0.00000000000E+00 0.  1.
</event>
<event>
 5   0  0.1517601E+07  0.9118800E+02  0.7546771E-02  0.1180000E+00
      -11   -1    0    0    0    0  0.00000000000E+00  0.00000000000E+00  0.34996269501E-01  0.35000000000E-01  0.51099999109E-03 0.  1.
       11   -1    0    0    0    0 -0.00000000000E+00 -0.00000000000E+00 -0.34996269501E-01  0.35000000000E-01  0.51099999109E-03 0. -1.
       22    1    1    2    0    0  0.17597921006E-04  0.28175711807E-04 -0.73478662307E-03  0.73553717718E-03  0.00000000000E+00 0. -1.
       22    1    1    2    0    0  0.17033576398E-01 -0.13465302772E-01  0.27348146394E-01  0.34919596430E-01  0.00000000000E+00 0.  1.
       22    1    1    2    0    0 -0.17051174319E-01  0.13437127060E-01 -0.26613359771E-01  0.34344866393E-01  0.00000000000E+00 0. -1.
</event>
<event>
 5   0  0.1517601E+07  0.9118800E+02  0.7546771E-02  0.1180000E+00
      -11   -1    0    0    0    0  0.00000000000E+00  0.00000000000E+00  0.34996269501E-01  0.35000000000E-01  0.51099999109E-03 0.  1.
       11   -1    0    0    0    0 -0.00000000000E+00 -0.00000000000E+00 -0.34996269501E-01  0.35000000000E-01  0.51099999109E-03 0. -1.
       22    1    1    2    0    0  0.10313980403E-01  0.91865706391E-02  0.52727658608E-02  0.14784225772E-01  0.00000000000E+00 0. -1.
       22    1    1    2    0    0 -0.21407179568E-01  0.53036657804E-02  0.15956177407E-01  0.27221238128E-01  0.00000000000E+00 0.  1.
       22    1    1    2    0    0  0.11093199165E-01 -0.14490236419E-01 -0.21228943268E-01  0.27994536100E-01  0.00000000000E+00 0. -1.
</event>
<event>
 5   0  0.1517601E+07  0.9118800E+02  0.7546771E-02  0.1180000E+00
      -11   -1    0    0    0    0  0.00000000000E+00  0.00000000000E+00  0.34996269501E-01  0.35000000000E-01  0.51099999109E-03 0.  1.
       11   -1    0    0    0    0 -0.00000000000E+00 -0.00000000000E+00 -0.34996269501E-01  0.35000000000E-01  0.51099999109E-03 0. -1.
       22    1    1    2    0    0  0.18096300387E-02 -0.41622656376E-03  0.34899683563E-01  0.34949047458E-01  0.00000000000E+00 0.  1.
       22    1    1    2    0    0  0.52458347050E-03  0.36798055097E-03 -0.30919806435E-02  0.31576798133E-02  0.00000000000E+00 0. -1.
       22    1    1    2    0    0 -0.23342135092E-02  0.48246012793E-04 -0.31807702919E-01  0.31893272729E-01  0.00000000000E+00 0. -1.
</event>
<event>
 5   0  0.1517601E+07  0.9118800E+02  0.7546771E-02  0.1180000E+00
      -11   -1    0    0    0    0  0.00000000000E+00  0.00000000000E+00  0.34996269501E-01  0.35000000000E-01  0.51099999109E-03 0. -1.
       11   -1    0    0    0    0 -0.00000000000E+00 -0.00000000000E+00 -0.34996269501E-01  0.35000000000E-01  0.51099999109E-03 0.  1.
       22    1    1    2    0    0 -0.20577964738E-03  0.53390512694E-03  0.34995123193E-01  0.34999800674E-01  0.00000000000E+00 0. -1.
       22    1    1    2    0    0  0.20621556105E-03 -0.53372600115E-03 -0.34995044133E-01  0.34999721458E-01  0.00000000000E+00 0.  1.
       22    1    1    2    0    0 -0.43591366781E-06 -0.17912579334E-06 -0.79060471940E-07  0.47786748566E-06  0.00000000000E+00 0.  1.
</event>
