<event>
 5   0  0.2147244E+06  0.9118800E+02  0.7546771E-02  0.1180000E+00
      -11   -1    0    0    0    0  0.00000000000E+00  0.00000000000E+00  0.34996269501E-01  0.35000000000E-01  0.51099999109E-03 0. -1.
       11   -1    0    0    0    0 -0.00000000000E+00 -0.00000000000E+00 -0.34996269501E-01  0.35000000000E-01  0.51099999109E-03 0.  1.
       22    1    1    2    0    0 -0.67314736444E-02 -0.33721389729E-01 -0.42556727440E-02  0.34649034808E-01  0.00000000000E+00 0. -1.
       22    1    1    2    0    0  0.59880985680E-03  0.39238728777E-03  0.11045264582E-02  0.13162521510E-02  0.00000000000E+00 0.  1.
       22    1    1    2    0    0  0.61326637876E-02  0.33329002441E-01  0.31511462858E-02  0.34034713041E-01  0.00000000000E+00 0.  1.
</event>
<event>
 5   0  0.2147244E+06  0.9118800E+02  0.7546771E-02  0.1180000E+00
      -11   -1    0    0    0    0  0.00000000000E+00  0.00000000000E+00  0.34996269501E-01  0.35000000000E-01  0.51099999109E-03 0. -1.
       11   -1    0    0    0    0 -0.00000000000E+00 -0.00000000000E+00 -0.34996269501E-01  0.35000000000E-01  0.51099999109E-03 0. -1.
       22    1    1    2    0    0 -0.35337493581E-03 -0.53232167092E-03  0.34925959458E-01  0.34931803335E-01  0.00000000000E+00 0. -1.
       22    1    1    2    0    0  0.11815896528E-03 -0.76437918247E-04 -0.46655261501E-05  0.14080505515E-03  0.00000000000E+00 0. -1.
       22    1    1    2    0    0  0.23521597052E-03  0.60875958916E-03 -0.34921293932E-01  0.34927391610E-01  0.00000000000E+00 0. -1.
</event>
<event>
 5   0  0.2147244E+06  0.9118800E+02  0.7546771E-02  0.1180000E+00
      -11   -1    0    0    0    0  0.00000000000E+00  0.00000000000E+00  0.34996269501E-01  0.35000000000E-01  0.51099999109E-03 0.  1.
       11   -1    0    0    0    0 -0.00000000000E+00 -0.00000000000E+00 -0.34996269501E-01  0.35000000000E-01  0.51099999109E-03 0. -1.
       22    1    1    2    0    0 -0.17982337471E-07  0.10709696732E-07  0.35298536665E-07  0.41037163105E-07  0.00000000000E+00 0. -1.
       22    1    1    2    0    0  0.21195127001E-02 -0.26233556915E-02 -0.34837128619E-01  0.34999997994E-01  0.00000000000E+00 0. -1.
       22    1    1    2    0    0 -0.21194947177E-02  0.26233449818E-02  0.34837093321E-01  0.34999960968E-01  0.00000000000E+00 0.  1.
</event>
<event>
 5   0  0.2147244E+06  0.9118800E+02  0.7546771E-02  0.1180000E+00
      -11   -1    0    0    0    0  0.00000000000E+00  0.00000000000E+00  0.34996269501E-01  0.35000000000E-01  0.51099999109E-03 0.  1.
       11   -1    0    0    0    0 -0.00000000000E+00 -0.00000000000E+00 -0.34996269501E-01  0.35000000000E-01  0.51099999109E-03 0. -1.
       22    1    1    2    0    0  0.16240659365E-01  0.25904735540E-01  0.16815521862E-01  0.34893783336E-01  0.00000000000E+00 0.  1.
       22    1    1    2    0    0 -0.15651280038E-01 -0.25634095805E-01 -0.15897877541E-01  0.33982524109E-01  0.00000000000E+00 0. -1.
       22    1    1    2    0    0 -0.58937932730E-03 -0.27063973481E-03 -0.91764432121E-03  0.11236925548E-02  0.00000000000E+00 0.  1.
</event>
<event>
 5   0  0.2147244E+06  0.9118800E+02  0.7546771E-02  0.1180000E+00
      -11   -1    0    0    0    0  0.00000000000E+00  0.00000000000E+00  0.34996269501E-01  0.35000000000E-01  0.51099999109E-03 0. -1.
       11   -1    0    0    0    0 -0.00000000000E+00 -0.00000000000E+00 -0.34996269501E-01  0.35000000000E-01  0.51099999109E-03 0.  1.
       22    1    1    2    0    0 -0.17901821770E-01  0.97952664396E-02  0.28435381590E-01  0.34999905621E-01  0.00000000000E+00 0. -1.
       22    1    1    2    0    0 -0.11671886092E-08 -0.32658952388E-07  0.10614639535E-06  0.11106316557E-06  0.00000000000E+00 0.  1.
       22    1    1    2    0    0  0.17901822937E-01 -0.97952337807E-02 -0.28435487737E-01  0.34999983316E-01  0.00000000000E+00 0.  1.
</event>
<event>
 5   0  0.2147244E+06  0.9118800E+02  0.7546771E-02  0.1180000E+00
      -11   -1    0    0    0    0  0.00000000000E+00  0.00000000000E+00  0.34996269501E-01  0.35000000000E-01  0.51099999109E-03 0.  1.
       11   -1    0    0    0    0 -0.00000000000E+00 -0.00000000000E+00 -0.34996269501E-01  0.35000000000E-01  0.51099999109E-03 0. -1.
       22    1    1    2    0    0 -0.82909362210E-07  0.10744809107E-05  0.26336569452E-05  0.28456162943E-05  0.00000000000E+00 0. -1.
       22    1    1    2    0    0 -0.49885716430E-02 -0.15693922938E-03 -0.34642184065E-01  0.34999877053E-01  0.00000000000E+00 0. -1.
       22    1    1    2    0    0  0.49886545524E-02  0.15586474847E-03  0.34639550408E-01  0.34997277330E-01  0.00000000000E+00 0.  1.
</event>
<event>
 5   0  0.2147244E+06  0.9118800E+02  0.7546771E-02  0.1180000E+00
      -11   -1    0    0    0    0  0.00000000000E+00  0.00000000000E+00  0.34996269501E-01  0.35000000000E-01  0.51099999109E-03 0.  1.
       11   -1    0    0    0    0 -0.00000000000E+00 -0.00000000000E+00 -0.34996269501E-01  0.35000000000E-01  0.51099999109E-03 0. -1.
       22    1    1    2    0    0  0.50874690649E-02 -0.77758220582E-02  0.33723262781E-01  0.34980054357E-01  0.00000000000E+00 0.  1.
       22    1    1    2    0    0 -0.50875736662E-02  0.77753687179E-02 -0.33743613908E-01  0.34999589199E-01  0.00000000000E+00 0. -1.
       22    1    1    2    0    0  0.10460130308E-06  0.45334034904E-06  0.20351126925E-04  0.20356444336E-04  0.00000000000E+00 0. -1.
</event>
<event>
 5   0  0.2147244E+06  0.9118800E+02  0.7546771E-02  0.1180000E+00
      -11   -1    0    0    0    0  0.00000000000E+00  0.00000000000E+00  0.34996269501E-01  0.35000000000E-01  0.51099999109E-03 0.  1.
       11   -1    0    0    0    0 -0.00000000000E+00 -0.00000000000E+00 -0.34996269501E-01  0.35000000000E-01  0.51099999109E-03 0. -1.
       22    1    1    2    0    0 -0.21817173745E-01  0.72026017403E-02 -0.26397145492E-01  0.34995368724E-01  0.00000000000E+00 0. -1.
       22    1    1    2    0    0  0.26878753280E-03 -0.49383553838E-04  0.44811672123E-03  0.52487528902E-03  0.00000000000E+00 0.  1.
       22    1    1    2    0    0  0.21548386212E-01 -0.71532181864E-02  0.25949028770E-01  0.34479755987E-01  0.00000000000E+00 0.  1.
</event>
<event>
 5   0  0.2147244E+06  0.9118800E+02  0.7546771E-02  0.1180000E+00
      -11   -1    0    0    0    0  0.00000000000E+00  0.00000000000E+00  0.34996269501E-01  0.35000000000E-01  0.51099999109E-03 0. -1.
       11   -1    0    0    0    0 -0.00000000000E+00 -0.00000000000E+00 -0.34996269501E-01  0.35000000000E-01  0.51099999109E-03 0.  1.
       22    1    1    2    0    0  0.65267512138E-02  0.31517359073E-03  0.34384360382E-01  0.34999743638E-01  0.00000000000E+00 0. -1.
       22    1    1    2    0    0 -0.65267546059E-02 -0.31515384184E-03 -0.34384618397E-01  0.34999997571E-01  0.00000000000E+00 0.  1.
       22    1    1    2    0    0  0.33920673049E-08 -0.19748889441E-07  0.25801481393E-06  0.25879174825E-06  0.00000000000E+00 0. -1.
</event>
<event>
 5   0  0.2147244E+06  0.9118800E+02  0.7546771E-02  0.1180000E+00
      -11   -1    0    0    0    0  0.00000000000E+00  0.00000000000E+00  0.34996269501E-01  0.35000000000E-01  0.51099999109E-03 0. -1.
       11   -1    0    0    0    0 -0.00000000000E+00 -0.00000000000E+00 -0.34996269501E-01  0.35000000000E-01  0.51099999109E-03 0.  1.
       22    1    1    2    0    0  0.12575559725E-01 -0.10615790729E-01  0.30817879570E-01  0.34936820353E-01  0.00000000000E+00 0. -1.
       22    1    1    2    0    0  0.27684225185E-05 -0.29796952685E-04  0.57929107963E-04  0.65202025290E-04  0.00000000000E+00 0.  1.
       22    1    1    2    0    0 -0.12578328147E-01  0.10645587682E-01 -0.30875808678E-01  0.34997977622E-01  0.00000000000E+00 0.  1.
</event>
<event>
 5   0  0.2147244E+06  0.9118800E+02  0.7546771E-02  0.1180000E+00
      -11   -1    0    0    0    0  0.00000000000E+00  0.00000000000E+00  0.34996269501E-01  0.35000000000E-01  0.51099999109E-03 0. -1.
       11   -1    0    0    0    0 -0.00000000000E+00 -0.00000000000E+00 -0.34996269501E-01  0.35000000000E-01  0.51099999109E-03 0.  1.
       22    1    1    2    0    0 -0.17943575718E-06  0.82922058248E-06  0.12154971937E-05  0.14823081303E-05  0.00000000000E+00 0.  1.
       22    1    1    2    0    0 -0.18798593499E-02  0.17383750293E-02 -0.34906058922E-01  0.34999839548E-01  0.00000000000E+00 0.  1.
       22    1    1    2    0    0  0.18800387857E-02 -0.17392042499E-02  0.34904843425E-01  0.34998678144E-01  0.00000000000E+00 0. -1.
</event>
<event>
 5   0  0.2147244E+06  0.9118800E+02  0.7546771E-02  0.1180000E+00
      -11   -1    0    0    0    0  0.00000000000E+00  0.00000000000E+00  0.34996269501E-01  0.35000000000E-01  0.51099999109E-03 0. -1.
       11   -1    0    0    0    0 -0.00000000000E+00 -0.00000000000E+00 -0.34996269501E-01  0.35000000000E-01  0.51099999109E-03 0.  1.
       22    1    1    2    0    0 -0.20785099508E-01 -0.18157494432E-01 -0.21524037089E-01  0.34999987688E-01  0.00000000000E+00 0.  1.
       22    1    1    2    0    0 -0.48986151646E-08 -0.69252143523E-08  0.45006840408E-07  0.45799243530E-07  0.00000000000E+00 0.  1.
       22    1    1    2    0    0  0.20785104407E-01  0.18157501357E-01  0.21523992082E-01  0.34999966512E-01  0.00000000000E+00 0. -1.
</event>
<event>
 5   0  0.2147244E+06  0.9118800E+02  0.7546771E-02  0.1180000E+00
      -11   -1    0    0    0    0  0.00000000000E+00  0.00000000000E+00  0.34996269501E-01  0.35000000000E-01  0.51099999109E-03 0. -1.
       11   -1    0    0    0    0 -0.00000000000E+00 -0.00000000000E+00 -0.34996269501E-01  0.35000000000E-01  0.51099999109E-03 0.  1.
       22    1    1    2    0    0  0.21874032926E-02  0.50628020292E-02  0.34561063519E-01  0.34998340091E-01  0.00000000000E+00 0. -1.
       22    1    1    2    0    0  0.65798274635E-07 -0.16086863927E-06  0.16754585751E-05  0.16844493370E-05  0.00000000000E+00 0.  1.
       22    1    1    2    0    0 -0.21874690908E-02 -0.50626411606E-02 -0.34562738978E-01  0.34999975460E-01  0.00000000000E+00 0.  1.
</event>
<event>
 5   0  0.2147244E+06  0.9118800E+02  0.7546771E-02  0.1180000E+00
      -11   -1    0    0    0    0  0.00000000000E+00  0.00000000000E+00  0.34996269501E-01  0.35000000000E-01  0.51099999109E-03 0. -1.
       11   -1    0    0    0    0 -0.00000000000E+00 -0.00000000000E+00 -0.34996269501E-01  0.35000000000E-01  0.51099999109E-03 0.  1.
       22    1    1    2    0    0 -0.11082496228E-01  0.32700632579E-01  0.57312029480E-02  0.34999996871E-01  0.00000000000E+00 0.  1.
       22    1    1    2    0    0  0.20544993982E-07 -0.13900797042E-07  0.39063221304E-08  0.25111517053E-07  0.00000000000E+00 0.  1.
       22    1    1    2    0    0  0.11082475683E-01 -0.32700618678E-01 -0.57312068543E-02  0.34999978018E-01  0.00000000000E+00 0. -1.
</event>
<event>
 5   0  0.2147244E+06  0.9118800E+02  0.7546771E-02  0.1180000E+00
      -11   -1    0    0    0    0  0.00000000000E+00  0.00000000000E+00  0.34996269501E-01  0.35000000000E-01  0.51099999109E-03 0. -1.
       11   -1    0    0    0    0 -0.00000000000E+00 -0.00000000000E+00 -0.34996269501E-01  0.35000000000E-01  0.51099999109E-03 0. -1.
       22    1    1    2    0    0  0.15827279648E-03  0.92816001737E-03 -0.34987278877E-01  0.34999945921E-01  0.00000000000E+00 0. -1.
       22    1    1    2    0    0  0.12517921709E-05  0.16967916274E-05  0.89462079122E-04  0.89486924666E-04  0.00000000000E+00 0.  1.
       22    1    1    2    0    0 -0.15952458865E-03 -0.92985680899E-03  0.34897816798E-01  0.34910567154E-01  0.00000000000E+00 0. -1.
</event>
<event>
 5   0  0.2147244E+06  0.9118800E+02  0.7546771E-02  0.1180000E+00
      -11   -1    0    0    0    0  0.00000000000E+00  0.00000000000E+00  0.34996269501E-01  0.35000000000E-01  0.51099999109E-03 0.  1.
       11   -1    0    0    0    0 -0.00000000000E+00 -0.00000000000E+00 -0.34996269501E-01  0.35000000000E-01  0.51099999109E-03 0. -1.
       22    1    1    2    0    0 -0.19096425351E-09 -0.16502427007E-08  0.86638846126E-09  0.18736054236E-08  0.00000000000E+00 0. -1.
       22    1    1    2    0    0  0.18860576557E-01  0.23079276372E-01 -0.18347360739E-01  0.34999999886E-01  0.00000000000E+00 0. -1.
       22    1    1    2    0    0 -0.18860576366E-01 -0.23079274722E-01  0.18347359872E-01  0.34999998241E-01  0.00000000000E+00 0.  1.
</event>
<event>
 5   0  0.2147244E+06  0.9118800E+02  0.7546771E-02  0.1180000E+00
      -11   -1    0    0    0    0  0.00000000000E+00  0.00000000000E+00  0.34996269501E-01  0.35000000000E-01  0.51099999109E-03 0. -1.
       11   -1    0    0    0    0 -0.00000000000E+00 -0.00000000000E+00 -0.34996269501E-01  0.35000000000E-01  0.51099999109E-03 0. -1.
       22    1    1    2    0    0 -0.15064318706E-02 -0.45675755836E-04  0.34965488758E-01  0.34997954617E-01  0.00000000000E+00 0. -1.
       22    1    1    2    0    0  0.78360758491E-06  0.28027379861E-05  0.10388988677E-05  0.30900957790E-05  0.00000000000E+00 0.  1.
       22    1    1    2    0    0  0.15056482630E-02  0.42873017850E-04 -0.34966527657E-01  0.34998955287E-01  0.00000000000E+00 0. -1.
</event>
<event>
 5   0  0.2147244E+06  0.9118800E+02  0.7546771E-02  0.1180000E+00
      -11   -1    0    0    0    0  0.00000000000E+00  0.00000000000E+00  0.34996269501E-01  0.35000000000E-01  0.51099999109E-03 0. -1.
       11   -1    0    0    0    0 -0.00000000000E+00 -0.00000000000E+00 -0.34996269501E-01  0.35000000000E-01  0.51099999109E-03 0. -1.
       22    1    1    2    0    0 -0.00000000000E+00  0.00000000000E+00  0.34985534019E-01  0.34983488968E-01  0.00000000000E+00 0. -1.
       22    1    1    2    0    0 -0.15110659811E-03 -0.22741694701E-04 -0.36572712512E-03  0.39636689913E-03  0.00000000000E+00 0.  1.
       22    1    1    2    0    0  0.15110659811E-03  0.22741694701E-04 -0.34619806894E-01  0.34620144133E-01  0.00000000000E+00 0. -1.
</event>
<event>
 5   0  0.2147244E+06  0.9118800E+02  0.7546771E-02  0.1180000E+00
      -11   -1    0    0    0    0  0.00000000000E+00  0.00000000000E+00  0.34996269501E-01  0.35000000000E-01  0.51099999109E-03 0.  1.
       11   -1    0    0    0    0 -0.00000000000E+00 -0.00000000000E+00 -0.34996269501E-01  0.35000000000E-01  0.51099999109E-03 0. -1.
       22    1    1    2    0    0 -0.11876445295E-03  0.33669581741E-01  0.95574494345E-02  0.34999995419E-01  0.00000000000E+00 0.  1.
       22    1    1    2    0    0  0.11422425324E-08 -0.66692219677E-09  0.76145978326E-08  0.77286223463E-08  0.00000000000E+00 0.  1.
       22    1    1    2    0    0  0.11876331071E-03 -0.33669581074E-01 -0.95574570491E-02  0.34999996853E-01  0.00000000000E+00 0. -1.
</event>
<event>
 5   0  0.2147244E+06  0.9118800E+02  0.7546771E-02  0.1180000E+00
      -11   -1    0    0    0    0  0.00000000000E+00  0.00000000000E+00  0.34996269501E-01  0.35000000000E-01  0.51099999109E-03 0. -1.
       11   -1    0    0    0    0 -0.00000000000E+00 -0.00000000000E+00 -0.34996269501E-01  0.35000000000E-01  0.51099999109E-03 0.  1.
       22    1    1    2    0    0 -0.13047982526E-02  0.12419096628E-02 -0.34940489195E-01  0.34986892164E-01  0.00000000000E+00 0.  1.
       22    1    1    2    0    0  0.51330838880E-05 -0.87189337389E-04  0.11577569325E-03  0.14502530900E-03  0.00000000000E+00 0. -1.
       22    1    1    2    0    0  0.12996651687E-02 -0.11547203254E-02  0.34824713502E-01  0.34868082527E-01  0.00000000000E+00 0. -1.
</event>
<event>
 5   0  0.2147244E+06  0.9118800E+02  0.7546771E-02  0.1180000E+00
      -11   -1    0    0    0    0  0.00000000000E+00  0.00000000000E+00  0.34996269501E-01  0.35000000000E-01  0.51099999109E-03 0.  1.
       11   -1    0    0    0    0 -0.00000000000E+00 -0.00000000000E+00 -0.34996269501E-01  0.35000000000E-01  0.51099999109E-03 0. -1.
       22    1    1    2    0    0 -0.46533714750E-03 -0.31059136955E-03 -0.65661272574E-03  0.86263893448E-03  0.00000000000E+00 0.  1.
       22    1    1    2    0    0  0.12539465912E-03  0.13864781354E-02 -0.34217096037E-01  0.34245404168E-01  0.00000000000E+00 0. -1.
       22    1    1    2    0    0  0.33994248838E-03 -0.10758867659E-02  0.34873708763E-01  0.34891956897E-01  0.00000000000E+00 0.  1.
</event>
<event>
 5   0  0.2147244E+06  0.9118800E+02  0.7546771E-02  0.1180000E+00
      -11   -1    0    0    0    0  0.00000000000E+00  0.00000000000E+00  0.34996269501E-01  0.35000000000E-01  0.51099999109E-03 0.  1.
       11   -1    0    0    0    0 -0.00000000000E+00 -0.00000000000E+00 -0.34996269501E-01  0.35000000000E-01  0.51099999109E-03 0. -1.
       22    1    1    2    0    0  0.47204338621E-02  0.10115092741E-01 -0.33170967517E-01  0.34998724020E-01  0.00000000000E+00 0. -1.
       22    1    1    2    0    0  0.32933860411E-05 -0.18707782062E-05  0.47778190381E-04  0.47928088620E-04  0.00000000000E+00 0. -1.
       22    1    1    2    0    0 -0.47237272481E-02 -0.10113221963E-01  0.33123189327E-01  0.34953347891E-01  0.00000000000E+00 0.  1.
</event>
<event>
 5   0  0.2147244E+06  0.9118800E+02  0.7546771E-02  0.1180000E+00
      -11   -1    0    0    0    0  0.00000000000E+00  0.00000000000E+00  0.34996269501E-01  0.35000000000E-01  0.51099999109E-03 0.  1.
       11   -1    0    0    0    0 -0.00000000000E+00 -0.00000000000E+00 -0.34996269501E-01  0.35000000000E-01  0.51099999109E-03 0. -1.
       22    1    1    2    0    0  0.12194658076E-07  0.67535799910E-08  0.25476507096E-07  0.29040883975E-07  0.00000000000E+00 0.  1.
       22    1    1    2    0    0 -0.69443802068E-04 -0.23803820491E-02  0.34918864096E-01  0.34999973013E-01  0.00000000000E+00 0.  1.
       22    1    1    2    0    0  0.69431607410E-04  0.23803752956E-02 -0.34918889572E-01  0.34999997947E-01  0.00000000000E+00 0. -1.
</event>
<event>
 5   0  0.2147244E+06  0.9118800E+02  0.7546771E-02  0.1180000E+00
      -11   -1    0    0    0    0  0.00000000000E+00  0.00000000000E+00  0.34996269501E-01  0.35000000000E-01  0.51099999109E-03 0.  1.
       11   -1    0    0    0    0 -0.00000000000E+00 -0.00000000000E+00 -0.34996269501E-01  0.35000000000E-01  0.51099999109E-03 0.  1.
       22    1    1    2    0    0 -0.19986459740E-11 -0.37233171999E-11 -0.35001465165E-01  0.34999999631E-01  0.00000000000E+00 0.  1.
       22    1    1    2    0    0 -0.26921001659E-07 -0.50151667589E-07  0.19717728299E-05  0.19725942368E-05  0.00000000000E+00 0.  1.
       22    1    1    2    0    0  0.26923000305E-07  0.50155390906E-07  0.34999493392E-01  0.34998027775E-01  0.00000000000E+00 0.  1.
</event>
<event>
 5   0  0.2147244E+06  0.9118800E+02  0.7546771E-02  0.1180000E+00
      -11   -1    0    0    0    0  0.00000000000E+00  0.00000000000E+00  0.34996269501E-01  0.35000000000E-01  0.51099999109E-03 0. -1.
       11   -1    0    0    0    0 -0.00000000000E+00 -0.00000000000E+00 -0.34996269501E-01  0.35000000000E-01  0.51099999109E-03 0.  1.
       22    1    1    2    0    0 -0.23502200417E-02  0.76656689093E-02 -0.33905108693E-01  0.34840241239E-01  0.00000000000E+00 0.  1.
       22    1    1    2    0    0  0.74522484948E-03  0.22281528163E-04  0.93406486884E-02  0.93703561546E-02  0.00000000000E+00 0.  1.
       22    1    1    2    0    0  0.16049951923E-02 -0.76879504375E-02  0.24564460005E-01  0.25789402607E-01  0.00000000000E+00 0. -1.
</event>
<event>
 5   0  0.2147244E+06  0.9118800E+02  0.7546771E-02  0.1180000E+00
      -11   -1    0    0    0    0  0.00000000000E+00  0.00000000000E+00  0.34996269501E-01  0.35000000000E-01  0.51099999109E-03 0.  1.
       11   -1    0    0    0    0 -0.00000000000E+00 -0.00000000000E+00 -0.34996269501E-01  0.35000000000E-01  0.51099999109E-03 0. -1.
       22    1    1    2    0    0  0.32503140986E-01 -0.57126377976E-03 -0.11934211021E-01  0.34629552537E-01  0.00000000000E+00 0. -1.
       22    1    1    2    0    0 -0.32417606374E-01  0.45239812052E-03  0.12529320172E-01  0.34757585230E-01  0.00000000000E+00 0.  1.
       22    1    1    2    0    0 -0.85534612126E-04  0.11886565924E-03 -0.59510915081E-03  0.61286223264E-03  0.00000000000E+00 0. -1.
</event>
<event>
 5   0  0.2147244E+06  0.9118800E+02  0.7546771E-02  0.1180000E+00
      -11   -1    0    0    0    0  0.00000000000E+00  0.00000000000E+00  0.34996269501E-01  0.35000000000E-01  0.51099999109E-03 0.  1.
       11   -1    0    0    0    0 -0.00000000000E+00 -0.00000000000E+00 -0.34996269501E-01  0.35000000000E-01  0.51099999109E-03 0. -1.
       22    1    1    2    0    0  0.17057064004E-06 -0.42007979434E-06  0.91584591348E-07  0.46254633738E-06  0.00000000000E+00 0.  1.
       22    1    1    2    0    0 -0.24569984624E-03  0.10022902709E-02 -0.34984604094E-01  0.34999821111E-01  0.00000000000E+00 0. -1.
       22    1    1    2    0    0  0.24552927560E-03 -0.10018701911E-02  0.34984512510E-01  0.34999716342E-01  0.00000000000E+00 0.  1.
</event>
<event>
 5   0  0.2147244E+06  0.9118800E+02  0.7546771E-02  0.1180000E+00
      -11   -1    0    0    0    0  0.00000000000E+00  0.00000000000E+00  0.34996269501E-01  0.35000000000E-01  0.51099999109E-03 0. -1.
       11   -1    0    0    0    0 -0.00000000000E+00 -0.00000000000E+00 -0.34996269501E-01  0.35000000000E-01  0.51099999109E-03 0.  1.
       22    1    1    2    0    0  0.15866886396E-01  0.22504320363E-01  0.76095459225E-02  0.28567598920E-01  0.00000000000E+00 0. -1.
       22    1    1    2    0    0 -0.23103245385E-01 -0.21852726360E-01 -0.13293537774E-02  0.31828741385E-01  0.00000000000E+00 0.  1.
       22    1    1    2    0    0  0.72363589892E-02 -0.65159400251E-03 -0.62801921451E-02  0.96036596953E-02  0.00000000000E+00 0.  1.
</event>
<event>
 5   0  0.2147244E+06  0.9118800E+02  0.7546771E-02  0.1180000E+00
      -11   -1    0    0    0    0  0.00000000000E+00  0.00000000000E+00  0.34996269501E-01  0.35000000000E-01  0.51099999109E-03 0. -1.
       11   -1    0    0    0    0 -0.00000000000E+00 -0.00000000000E+00 -0.34996269501E-01  0.35000000000E-01  0.51099999109E-03 0.  1.
       22    1    1    2    0    0 -0.69846430976E-04 -0.56420288030E-02 -0.34540742661E-01  0.34998575272E-01  0.00000000000E+00 0.  1.
       22    1    1    2    0    0  0.58257066049E-04  0.56440076726E-02  0.34379198693E-01  0.34839453487E-01  0.00000000000E+00 0. -1.
       22    1    1    2    0    0  0.11589364927E-04 -0.19788695630E-05  0.16154396801E-03  0.16197124098E-03  0.00000000000E+00 0. -1.
</event>
<event>
 5   0  0.2147244E+06  0.9118800E+02  0.7546771E-02  0.1180000E+00
      -11   -1    0    0    0    0  0.00000000000E+00  0.00000000000E+00  0.34996269501E-01  0.35000000000E-01  0.51099999109E-03 0. -1.
       11   -1    0    0    0    0 -0.00000000000E+00 -0.00000000000E+00 -0.34996269501E-01  0.35000000000E-01  0.51099999109E-03 0.  1.
       22    1    1    2    0    0 -0.68038287572E-03  0.26681266346E-03  0.34980295950E-01  0.34987929556E-01  0.00000000000E+00 0. -1.
       22    1    1    2    0    0  0.68060863406E-03 -0.26708510618E-03 -0.34992361883E-01  0.34999999324E-01  0.00000000000E+00 0.  1.
       22    1    1    2    0    0 -0.22575833571E-06  0.27244271998E-06  0.12065932548E-04  0.12071119257E-04  0.00000000000E+00 0.  1.
</event>
<event>
 5   0  0.2147244E+06  0.9118800E+02  0.7546771E-02  0.1180000E+00
      -11   -1    0    0    0    0  0.00000000000E+00  0.00000000000E+00  0.34996269501E-01  0.35000000000E-01  0.51099999109E-03 0.  1.
       11   -1    0    0    0    0 -0.00000000000E+00 -0.00000000000E+00 -0.34996269501E-01  0.35000000000E-01  0.51099999109E-03 0. -1.
       22    1    1    2    0    0 -0.80913104249E-02 -0.67201070728E-02 -0.33382069155E-01  0.34999881207E-01  0.00000000000E+00 0. -1.
       22    1    1    2    0    0  0.80913966002E-02  0.67204164551E-02  0.33379009399E-01  0.34997042229E-01  0.00000000000E+00 0.  1.
       22    1    1    2    0    0 -0.86175319491E-07 -0.30938232373E-06  0.30597554759E-05  0.30765641843E-05  0.00000000000E+00 0. -1.
</event>
<event>
 5   0  0.2147244E+06  0.9118800E+02  0.7546771E-02  0.1180000E+00
      -11   -1    0    0    0    0  0.00000000000E+00  0.00000000000E+00  0.34996269501E-01  0.35000000000E-01  0.51099999109E-03 0.  1.
       11   -1    0    0    0    0 -0.00000000000E+00 -0.00000000000E+00 -0.34996269501E-01  0.35000000000E-01  0.51099999109E-03 0.  1.
       22    1    1    2    0    0 -0.20263019723E-03 -0.52132073399E-03  0.25961733798E-02  0.26557391669E-02  0.00000000000E+00 0. -1.
       22    1    1    2    0    0 -0.17530229146E-04 -0.25857242579E-03 -0.34964665566E-01  0.34965626051E-01  0.00000000000E+00 0.  1.
       22    1    1    2    0    0  0.22016042638E-03  0.77989315978E-03  0.32368492186E-01  0.32378634782E-01  0.00000000000E+00 0.  1.
</event>
<event>
 5   0  0.2147244E+06  0.9118800E+02  0.7546771E-02  0.1180000E+00
      -11   -1    0    0    0    0  0.00000000000E+00  0.00000000000E+00  0.34996269501E-01  0.35000000000E-01  0.51099999109E-03 0.  1.
       11   -1    0    0    0    0 -0.00000000000E+00 -0.00000000000E+00 -0.34996269501E-01  0.35000000000E-01  0.51099999109E-03 0. -1.
       22    1    1    2    0    0  0.15282386077E-08  0.22707839171E-09  0.25427448187E-07  0.25474343940E-07  0.00000000000E+00 0.  1.
       22    1    1    2    0    0  0.59054942383E-02  0.48566070124E-02  0.34154600509E-01  0.34999974712E-01  0.00000000000E+00 0.  1.
       22    1    1    2    0    0 -0.59054957666E-02 -0.48566072395E-02 -0.34154625937E-01  0.34999999814E-01  0.00000000000E+00 0. -1.
</event>
<event>
 5   0  0.2147244E+06  0.9118800E+02  0.7546771E-02  0.1180000E+00
      -11   -1    0    0    0    0  0.00000000000E+00  0.00000000000E+00  0.34996269501E-01  0.35000000000E-01  0.51099999109E-03 0. -1.
       11   -1    0    0    0    0 -0.00000000000E+00 -0.00000000000E+00 -0.34996269501E-01  0.35000000000E-01  0.51099999109E-03 0.  1.
       22    1    1    2    0    0  0.83702080780E-02 -0.24223010415E-01 -0.23836621168E-01  0.34999987508E-01  0.00000000000E+00 0.  1.
       22    1    1    2    0    0 -0.83701469143E-02  0.24222996668E-01  0.23836526132E-01  0.34999898643E-01  0.00000000000E+00 0. -1.
       22    1    1    2    0    0 -0.61163691699E-07  0.13747048094E-07  0.95035638880E-07  0.11384968674E-06  0.00000000000E+00 0.  1.
</event>
<event>
 5   0  0.2147244E+06  0.9118800E+02  0.7546771E-02  0.1180000E+00
      -11   -1    0    0    0    0  0.00000000000E+00  0.00000000000E+00  0.34996269501E-01  0.35000000000E-01  0.51099999109E-03 0. -1.
       11   -1    0    0    0    0 -0.00000000000E+00 -0.00000000000E+00 -0.34996269501E-01  0.35000000000E-01  0.51099999109E-03 0. -1.
       22    1    1    2    0    0  0.45521866297E-10  0.53981127105E-10 -0.35002362300E-01  0.34999985469E-01  0.00000000000E+00 0. -1.
       22    1    1    2    0    0  0.52153601872E-06  0.61845228253E-06  0.10967405352E-04  0.10997202517E-04  0.00000000000E+00 0. -1.
       22    1    1    2    0    0 -0.52158154058E-06 -0.61850626366E-06  0.34991394894E-01  0.34989017328E-01  0.00000000000E+00 0. -1.
</event>
<event>
 5   0  0.2147244E+06  0.9118800E+02  0.7546771E-02  0.1180000E+00
      -11   -1    0    0    0    0  0.00000000000E+00  0.00000000000E+00  0.34996269501E-01  0.35000000000E-01  0.51099999109E-03 0. -1.
       11   -1    0    0    0    0 -0.00000000000E+00 -0.00000000000E+00 -0.34996269501E-01  0.35000000000E-01  0.51099999109E-03 0.  1.
       22    1    1    2    0    0 -0.17696669775E-02  0.10403406836E-02  0.34939716336E-01  0.34999968680E-01  0.00000000000E+00 0. -1.
       22    1    1    2    0    0  0.17696749097E-02 -0.10403555140E-02 -0.34939744973E-01  0.34999998110E-01  0.00000000000E+00 0.  1.
       22    1    1    2    0    0 -0.79322420546E-08  0.14830376033E-07  0.28637366155E-07  0.33210830426E-07  0.00000000000E+00 0. -1.
</event>
<event>
 5   0  0.2147244E+06  0.9118800E+02  0.7546771E-02  0.1180000E+00
      -11   -1    0    0    0    0  0.00000000000E+00  0.00000000000E+00  0.34996269501E-01  0.35000000000E-01  0.51099999109E-03 0. -1.
       11   -1    0    0    0    0 -0.00000000000E+00 -0.00000000000E+00 -0.34996269501E-01  0.35000000000E-01  0.51099999109E-03 0.  1.
       22    1    1    2    0    0 -0.46672070123E-03  0.94023150553E-03  0.24446526156E-02  0.26604867803E-02  0.00000000000E+00 0. -1.
       22    1    1    2    0    0 -0.14119772257E-02 -0.89104211180E-02 -0.33773769598E-01  0.34957928958E-01  0.00000000000E+00 0.  1.
       22    1    1    2    0    0  0.18786979269E-02  0.79701896124E-02  0.31329116983E-01  0.32381584261E-01  0.00000000000E+00 0. -1.
</event>
<event>
 5   0  0.2147244E+06  0.9118800E+02  0.7546771E-02  0.1180000E+00
      -11   -1    0    0    0    0  0.00000000000E+00  0.00000000000E+00  0.34996269501E-01  0.35000000000E-01  0.51099999109E-03 0. -1.
       11   -1    0    0    0    0 -0.00000000000E+00 -0.00000000000E+00 -0.34996269501E-01  0.35000000000E-01  0.51099999109E-03 0.  1.
       22    1    1    2    0    0  0.24601940602E-01  0.13184342008E-01  0.21116761668E-01  0.34999999698E-01  0.00000000000E+00 0. -1.
       22    1    1    2    0    0  0.41553996334E-10  0.31922119393E-09  0.15844218655E-09  0.35879357818E-09  0.00000000000E+00 0.  1.
       22    1    1    2    0    0 -0.24601940643E-01 -0.13184342327E-01 -0.21116761826E-01  0.34999999943E-01  0.00000000000E+00 0.  1.
</event>
<event>
 5   0  0.2147244E+06  0.9118800E+02  0.7546771E-02  0.1180000E+00
      -11   -1    0    0    0    0  0.00000000000E+00  0.00000000000E+00  0.34996269501E-01  0.35000000000E-01  0.51099999109E-03 0.  1.
       11   -1    0    0    0    0 -0.00000000000E+00 -0.00000000000E+00 -0.34996269501E-01  0.35000000000E-01  0.51099999109E-03 0. -1.
       22    1    1    2    0    0  0.76916009111E-02  0.13598573258E-01  0.31309178615E-01  0.34990664251E-01  0.00000000000E+00 0.  1.
       22    1    1    2    0    0  0.14171347732E-04  0.33531064060E-05 -0.35369957246E-06  0.14566932502E-04  0.00000000000E+00 0.  1.
       22    1    1    2    0    0 -0.77057722588E-02 -0.13601926365E-01 -0.31308824915E-01  0.34994768816E-01  0.00000000000E+00 0. -1.
</event>
<event>
 5   0  0.2147244E+06  0.9118800E+02  0.7546771E-02  0.1180000E+00
      -11   -1    0    0    0    0  0.00000000000E+00  0.00000000000E+00  0.34996269501E-01  0.35000000000E-01  0.51099999109E-03 0.  1.
       11   -1    0    0    0    0 -0.00000000000E+00 -0.00000000000E+00 -0.34996269501E-01  0.35000000000E-01  0.51099999109E-03 0. -1.
       22    1    1    2    0    0  0.51410688745E-02  0.36126745089E-02 -0.34431349796E-01  0.34999997930E-01  0.00000000000E+00 0. -1.
       22    1    1    2    0    0 -0.51409589913E-02 -0.36126708034E-02  0.34430908770E-01  0.34999547546E-01  0.00000000000E+00 0.  1.
       22    1    1    2    0    0 -0.10988318662E-06 -0.37055137687E-08  0.44102629357E-06  0.45452418765E-06  0.00000000000E+00 0. -1.
</event>
<event>
 5   0  0.2147244E+06  0.9118800E+02  0.7546771E-02  0.1180000E+00
      -11   -1    0    0    0    0  0.00000000000E+00  0.00000000000E+00  0.34996269501E-01  0.35000000000E-01  0.51099999109E-03 0. -1.
       11   -1    0    0    0    0 -0.00000000000E+00 -0.00000000000E+00 -0.34996269501E-01  0.35000000000E-01  0.51099999109E-03 0.  1.
       22    1    1    2    0    0  0.54135590032E-02 -0.52328195638E-02 -0.34180558211E-01  0.34999994019E-01  0.00000000000E+00 0.  1.
       22    1    1    2    0    0  0.23845367342E-07  0.43340998569E-07  0.90518116001E-07  0.10315315325E-06  0.00000000000E+00 0.  1.
       22    1    1    2    0    0 -0.54135828485E-02  0.52327762228E-02  0.34180467693E-01  0.34999902828E-01  0.00000000000E+00 0. -1.
</event>
<event>
 5   0  0.2147244E+06  0.9118800E+02  0.7546771E-02  0.1180000E+00
      -11   -1    0    0    0    0  0.00000000000E+00  0.00000000000E+00  0.34996269501E-01  0.35000000000E-01  0.51099999109E-03 0.  1.
       11   -1    0    0    0    0 -0.00000000000E+00 -0.00000000000E+00 -0.34996269501E-01  0.35000000000E-01  0.51099999109E-03 0. -1.
       22    1    1    2    0    0 -0.53458276084E-03 -0.85589100205E-03  0.55786138791E-02  0.56691499317E-02  0.00000000000E+00 0.  1.
       22    1    1    2    0    0  0.77341980552E-03 -0.99687710273E-02  0.27639635173E-01  0.29392584209E-01  0.00000000000E+00 0.  1.
       22    1    1    2    0    0 -0.23883704469E-03  0.10824662029E-01 -0.33218249052E-01  0.34938265859E-01  0.00000000000E+00 0. -1.
</event>
<event>
 5   0  0.2147244E+06  0.9118800E+02  0.7546771E-02  0.1180000E+00
      -11   -1    0    0    0    0  0.00000000000E+00  0.00000000000E+00  0.34996269501E-01  0.35000000000E-01  0.51099999109E-03 0. -1.
       11   -1    0    0    0    0 -0.00000000000E+00 -0.00000000000E+00 -0.34996269501E-01  0.35000000000E-01  0.51099999109E-03 0. -1.
       22    1    1    2    0    0 -0.76744781579E-03 -0.57974401095E-03 -0.34986778902E-01  0.34999996818E-01  0.00000000000E+00 0. -1.
       22    1    1    2    0    0  0.76745752124E-03  0.57973600420E-03  0.34986769441E-01  0.34999987440E-01  0.00000000000E+00 0. -1.
       22    1    1    2    0    0 -0.97054454336E-08  0.80067472056E-08  0.94609216456E-08  0.15742068170E-07  0.00000000000E+00 0. -1.
</event>
<event>
 5   0  0.2147244E+06  0.9118800E+02  0.7546771E-02  0.1180000E+00
      -11   -1    0    0    0    0  0.00000000000E+00  0.00000000000E+00  0.34996269501E-01  0.35000000000E-01  0.51099999109E-03 0.  1.
       11   -1    0    0    0    0 -0.00000000000E+00 -0.00000000000E+00 -0.34996269501E-01  0.35000000000E-01  0.51099999109E-03 0. -1.
       22    1    1    2    0    0  0.45611336934E-04  0.33995844600E-05 -0.50534586381E-04  0.68159340168E-04  0.00000000000E+00 0. -1.
       22    1    1    2    0    0  0.12374026458E-02 -0.28416750265E-02  0.34852863222E-01  0.34990403785E-01  0.00000000000E+00 0.  1.
       22    1    1    2    0    0 -0.12830139828E-02  0.28382754421E-02 -0.34802328636E-01  0.34941436874E-01  0.00000000000E+00 0. -1.
</event>
<event>
 5   0  0.2147244E+06  0.9118800E+02  0.7546771E-02  0.1180000E+00
      -11   -1    0    0    0    0  0.00000000000E+00  0.00000000000E+00  0.34996269501E-01  0.35000000000E-01  0.51099999109E-03 0.  1.
       11   -1    0    0    0    0 -0.00000000000E+00 -0.00000000000E+00 -0.34996269501E-01  0.35000000000E-01  0.51099999109E-03 0. -1.
       22    1    1    2    0    0  0.70772590302E-02 -0.26426182944E-03  0.34274993190E-01  0.34999036956E-01  0.00000000000E+00 0.  1.
       22    1    1    2    0    0  0.20294926614E-06  0.21907795035E-05 -0.33009213343E-06  0.22247840466E-05  0.00000000000E+00 0. -1.
       22    1    1    2    0    0 -0.70774619794E-02  0.26207104994E-03 -0.34274663098E-01  0.34998738260E-01  0.00000000000E+00 0. -1.
</event>
<event>
 5   0  0.2147244E+06  0.9118800E+02  0.7546771E-02  0.1180000E+00
      -11   -1    0    0    0    0  0.00000000000E+00  0.00000000000E+00  0.34996269501E-01  0.35000000000E-01  0.51099999109E-03 0.  1.
       11   -1    0    0    0    0 -0.00000000000E+00 -0.00000000000E+00 -0.34996269501E-01  0.35000000000E-01  0.51099999109E-03 0. -1.
       22    1    1    2    0    0  0.36208614207E-03  0.64122933550E-04 -0.22239832171E-02  0.22541782261E-02  0.00000000000E+00 0. -1.
       22    1    1    2    0    0 -0.24679341947E-02  0.19224922907E-02  0.34850744489E-01  0.34990871199E-01  0.00000000000E+00 0.  1.
       22    1    1    2    0    0  0.21058480527E-02 -0.19866152243E-02 -0.32626761272E-01  0.32754950575E-01  0.00000000000E+00 0. -1.
</event>
<event>
 5   0  0.2147244E+06  0.9118800E+02  0.7546771E-02  0.1180000E+00
      -11   -1    0    0    0    0  0.00000000000E+00  0.00000000000E+00  0.34996269501E-01  0.35000000000E-01  0.51099999109E-03 0. -1.
       11   -1    0    0    0    0 -0.00000000000E+00 -0.00000000000E+00 -0.34996269501E-01  0.35000000000E-01  0.51099999109E-03 0.  1.
       22    1    1    2    0    0 -0.18235917230E-08 -0.19164212045E-09 -0.12843173588E-10  0.18336789309E-08  0.00000000000E+00 0.  1.
       22    1    1    2    0    0 -0.10580662688E-02  0.45256308767E-02  0.34690043185E-01  0.34999999074E-01  0.00000000000E+00 0. -1.
       22    1    1    2    0    0  0.10580680924E-02 -0.45256306851E-02 -0.34690043172E-01  0.34999999092E-01  0.00000000000E+00 0.  1.
</event>
<event>
 5   0  0.2147244E+06  0.9118800E+02  0.7546771E-02  0.1180000E+00
      -11   -1    0    0    0    0  0.00000000000E+00  0.00000000000E+00  0.34996269501E-01  0.35000000000E-01  0.51099999109E-03 0.  1.
       11   -1    0    0    0    0 -0.00000000000E+00 -0.00000000000E+00 -0.34996269501E-01  0.35000000000E-01  0.51099999109E-03 0. -1.
       22    1    1    2    0    0 -0.28993317571E-02 -0.71535793382E-02 -0.33869196507E-01  0.34737620730E-01  0.00000000000E+00 0. -1.
       22    1    1    2    0    0 -0.53002661375E-04  0.86823299620E-04 -0.26274307626E-03  0.28174721222E-03  0.00000000000E+00 0. -1.
       22    1    1    2    0    0  0.29523344185E-02  0.70667560386E-02  0.34131939583E-01  0.34980632057E-01  0.00000000000E+00 0.  1.
</event>
<event>
 5   0  0.2147244E+06  0.9118800E+02  0.7546771E-02  0.1180000E+00
      -11   -1    0    0    0    0  0.00000000000E+00  0.00000000000E+00  0.34996269501E-01  0.35000000000E-01  0.51099999109E-03 0.  1.
       11   -1    0    0    0    0 -0.00000000000E+00 -0.00000000000E+00 -0.34996269501E-01  0.35000000000E-01  0.51099999109E-03 0. -1.
       22    1    1    2    0    0 -0.24452221683E-02  0.68680303765E-02 -0.34232309802E-01  0.34999999815E-01  0.00000000000E+00 0. -1.
       22    1    1    2    0    0  0.24452223934E-02 -0.68680249832E-02  0.34232258276E-01  0.34999948377E-01  0.00000000000E+00 0.  1.
       22    1    1    2    0    0 -0.22508475314E-09 -0.53932562223E-08  0.51525307972E-07  0.51807289424E-07  0.00000000000E+00 0.  1.
</event>
<event>
 5   0  0.2147244E+06  0.9118800E+02  0.7546771E-02  0.1180000E+00
      -11   -1    0    0    0    0  0.00000000000E+00  0.00000000000E+00  0.34996269501E-01  0.35000000000E-01  0.51099999109E-03 0.  1.
       11   -1    0    0    0    0 -0.00000000000E+00 -0.00000000000E+00 -0.34996269501E-01  0.35000000000E-01  0.51099999109E-03 0. -1.
       22    1    1    2    0    0 -0.17181630893E-05 -0.60771890164E-06  0.47248292278E-04  0.47283427645E-04  0.00000000000E+00 0.  1.
       22    1    1    2    0    0  0.19798269923E-02 -0.11126151828E-02 -0.34926213374E-01  0.34999971545E-01  0.00000000000E+00 0. -1.
       22    1    1    2    0    0 -0.19781088292E-02  0.11132229017E-02  0.34878965082E-01  0.34952745028E-01  0.00000000000E+00 0.  1.
</event>
<event>
 5   0  0.2147244E+06  0.9118800E+02  0.7546771E-02  0.1180000E+00
      -11   -1    0    0    0    0  0.00000000000E+00  0.00000000000E+00  0.34996269501E-01  0.35000000000E-01  0.51099999109E-03 0. -1.
       11   -1    0    0    0    0 -0.00000000000E+00 -0.00000000000E+00 -0.34996269501E-01  0.35000000000E-01  0.51099999109E-03 0.  1.
       22    1    1    2    0    0 -0.11057082935E-02  0.52485434770E-03 -0.34889314829E-01  0.34910777021E-01  0.00000000000E+00 0.  1.
       22    1    1    2    0    0 -0.44716188171E-04 -0.66999429421E-04 -0.70767044300E-04  0.10722143250E-03  0.00000000000E+00 0. -1.
       22    1    1    2    0    0  0.11504244817E-02 -0.45785491828E-03  0.34960081874E-01  0.34982001547E-01  0.00000000000E+00 0. -1.
</event>
<event>
 5   0  0.2147244E+06  0.9118800E+02  0.7546771E-02  0.1180000E+00
      -11   -1    0    0    0    0  0.00000000000E+00  0.00000000000E+00  0.34996269501E-01  0.35000000000E-01  0.51099999109E-03 0. -1.
       11   -1    0    0    0    0 -0.00000000000E+00 -0.00000000000E+00 -0.34996269501E-01  0.35000000000E-01  0.51099999109E-03 0. -1.
       22    1    1    2    0    0 -0.12554149384E-02 -0.28001577372E-02  0.32872377226E-03  0.30862613855E-02  0.00000000000E+00 0.  1.
       22    1    1    2    0    0  0.69703756920E-03  0.18999568526E-02 -0.33582334717E-01  0.33643259391E-01  0.00000000000E+00 0. -1.
       22    1    1    2    0    0  0.55837736923E-03  0.90020088466E-03  0.33253610945E-01  0.33270479224E-01  0.00000000000E+00 0. -1.
</event>
<event>
 5   0  0.2147244E+06  0.9118800E+02  0.7546771E-02  0.1180000E+00
      -11   -1    0    0    0    0  0.00000000000E+00  0.00000000000E+00  0.34996269501E-01  0.35000000000E-01  0.51099999109E-03 0. -1.
       11   -1    0    0    0    0 -0.00000000000E+00 -0.00000000000E+00 -0.34996269501E-01  0.35000000000E-01  0.51099999109E-03 0.  1.
       22    1    1    2    0    0 -0.13054919381E-02 -0.16942946139E-06  0.34868119313E-01  0.34892550117E-01  0.00000000000E+00 0. -1.
       22    1    1    2    0    0  0.64876858006E-04  0.15172226391E-04  0.98449623875E-04  0.11887611871E-03  0.00000000000E+00 0. -1.
       22    1    1    2    0    0  0.12406150801E-02 -0.15002796929E-04 -0.34966568937E-01  0.34988573765E-01  0.00000000000E+00 0.  1.
</event>
<event>
 5   0  0.2147244E+06  0.9118800E+02  0.7546771E-02  0.1180000E+00
      -11   -1    0    0    0    0  0.00000000000E+00  0.00000000000E+00  0.34996269501E-01  0.35000000000E-01  0.51099999109E-03 0.  1.
       11   -1    0    0    0    0 -0.00000000000E+00 -0.00000000000E+00 -0.34996269501E-01  0.35000000000E-01  0.51099999109E-03 0.  1.
       22    1    1    2    0    0  0.26368511161E-04  0.14213670726E-04  0.33067214248E-01  0.33066512495E-01  0.00000000000E+00 0.  1.
       22    1    1    2    0    0 -0.26366754211E-04 -0.14212723660E-04  0.19333585232E-02  0.19335905426E-02  0.00000000000E+00 0. -1.
       22    1    1    2    0    0 -0.17569499585E-08 -0.94706553738E-09 -0.35000572771E-01  0.34999896963E-01  0.00000000000E+00 0.  1.
</event>
<event>
 5   0  0.2147244E+06  0.9118800E+02  0.7546771E-02  0.1180000E+00
      -11   -1    0    0    0    0  0.00000000000E+00  0.00000000000E+00  0.34996269501E-01  0.35000000000E-01  0.51099999109E-03 0. -1.
       11   -1    0    0    0    0 -0.00000000000E+00 -0.00000000000E+00 -0.34996269501E-01  0.35000000000E-01  0.51099999109E-03 0.  1.
       22    1    1    2    0    0  0.13302590730E-04 -0.12066697810E-04  0.79297897972E-04  0.81306338861E-04  0.00000000000E+00 0. -1.
       22    1    1    2    0    0  0.26440230316E-02  0.75398249959E-02 -0.34074509596E-01  0.34998743162E-01  0.00000000000E+00 0.  1.
       22    1    1    2    0    0 -0.26573256223E-02 -0.75277582980E-02  0.33995211698E-01  0.34919950499E-01  0.00000000000E+00 0. -1.
</event>
<event>
 5   0  0.2147244E+06  0.9118800E+02  0.7546771E-02  0.1180000E+00
      -11   -1    0    0    0    0  0.00000000000E+00  0.00000000000E+00  0.34996269501E-01  0.35000000000E-01  0.51099999109E-03 0. -1.
       11   -1    0    0    0    0 -0.00000000000E+00 -0.00000000000E+00 -0.34996269501E-01  0.35000000000E-01  0.51099999109E-03 0. -1.
       22    1    1    2    0    0  0.15410156188E-07 -0.12885693874E-06  0.65475322516E-06  0.66749035156E-06  0.00000000000E+00 0. -1.
       22    1    1    2    0    0  0.84279821536E-03 -0.34559826808E-03 -0.34988137160E-01  0.34999992699E-01  0.00000000000E+00 0. -1.
       22    1    1    2    0    0 -0.84281362552E-03  0.34572712501E-03  0.34987482407E-01  0.34999339811E-01  0.00000000000E+00 0. -1.
</event>
<event>
 5   0  0.2147244E+06  0.9118800E+02  0.7546771E-02  0.1180000E+00
      -11   -1    0    0    0    0  0.00000000000E+00  0.00000000000E+00  0.34996269501E-01  0.35000000000E-01  0.51099999109E-03 0.  1.
       11   -1    0    0    0    0 -0.00000000000E+00 -0.00000000000E+00 -0.34996269501E-01  0.35000000000E-01  0.51099999109E-03 0. -1.
       22    1    1    2    0    0  0.11879018852E-01  0.12226402696E-01 -0.28285530226E-01  0.33025251429E-01  0.00000000000E+00 0. -1.
       22    1    1    2    0    0 -0.87900377506E-04 -0.10264019283E-03 -0.21509974217E-02  0.21552381292E-02  0.00000000000E+00 0.  1.
       22    1    1    2    0    0 -0.11791118475E-01 -0.12123762503E-01  0.30436527648E-01  0.34819510442E-01  0.00000000000E+00 0.  1.
</event>
<event>
 5   0  0.2147244E+06  0.9118800E+02  0.7546771E-02  0.1180000E+00
      -11   -1    0    0    0    0  0.00000000000E+00  0.00000000000E+00  0.34996269501E-01  0.35000000000E-01  0.51099999109E-03 0. -1.
       11   -1    0    0    0    0 -0.00000000000E+00 -0.00000000000E+00 -0.34996269501E-01  0.35000000000E-01  0.51099999109E-03 0. -1.
       22    1    1    2    0    0 -0.38585932219E-03  0.23609616537E-03  0.34994756040E-01  0.34997679625E-01  0.00000000000E+00 0. -1.
       22    1    1    2    0    0  0.49941756724E-06 -0.69905940628E-06  0.22462281458E-05  0.24049205482E-05  0.00000000000E+00 0. -1.
       22    1    1    2    0    0  0.38535990462E-03 -0.23539710597E-03 -0.34997002268E-01  0.34999915455E-01  0.00000000000E+00 0. -1.
</event>
<event>
 5   0  0.2147244E+06  0.9118800E+02  0.7546771E-02  0.1180000E+00
      -11   -1    0    0    0    0  0.00000000000E+00  0.00000000000E+00  0.34996269501E-01  0.35000000000E-01  0.51099999109E-03 0. -1.
       11   -1    0    0    0    0 -0.00000000000E+00 -0.00000000000E+00 -0.34996269501E-01  0.35000000000E-01  0.51099999109E-03 0.  1.
       22    1    1    2    0    0  0.23450390568E-01 -0.16542056671E-01  0.20032025959E-01  0.34997750224E-01  0.00000000000E+00 0. -1.
       22    1    1    2    0    0 -0.23450826405E-01  0.16541533084E-01 -0.20034806896E-01  0.34999386612E-01  0.00000000000E+00 0.  1.
       22    1    1    2    0    0  0.43583724335E-06  0.52358682642E-06  0.27809371770E-05  0.28631641325E-05  0.00000000000E+00 0. -1.
</event>
<event>
 5   0  0.2147244E+06  0.9118800E+02  0.7546771E-02  0.1180000E+00
      -11   -1    0    0    0    0  0.00000000000E+00  0.00000000000E+00  0.34996269501E-01  0.35000000000E-01  0.51099999109E-03 0.  1.
       11   -1    0    0    0    0 -0.00000000000E+00 -0.00000000000E+00 -0.34996269501E-01  0.35000000000E-01  0.51099999109E-03 0.  1.
       22    1    1    2    0    0  0.19840065724E-06 -0.23413698851E-06  0.33430598385E-04  0.33432006990E-04  0.00000000000E+00 0.  1.
       22    1    1    2    0    0 -0.19841337352E-06  0.23415199527E-06  0.34967320370E-01  0.34966568339E-01  0.00000000000E+00 0.  1.
       22    1    1    2    0    0  0.12716279963E-10 -0.15006762260E-10 -0.35000750968E-01  0.34999999654E-01  0.00000000000E+00 0.  1.
</event>
<event>
 5   0  0.2147244E+06  0.9118800E+02  0.7546771E-02  0.1180000E+00
      -11   -1    0    0    0    0  0.00000000000E+00  0.00000000000E+00  0.34996269501E-01  0.35000000000E-01  0.51099999109E-03 0.  1.
       11   -1    0    0    0    0 -0.00000000000E+00 -0.00000000000E+00 -0.34996269501E-01  0.35000000000E-01  0.51099999109E-03 0. -1.
       22    1    1    2    0    0 -0.35082688899E-02  0.20027424167E-02  0.32453226277E-01  0.32703682111E-01  0.00000000000E+00 0.  1.
       22    1    1    2    0    0  0.25543240050E-02 -0.24518640477E-02 -0.34665384762E-01  0.34845733012E-01  0.00000000000E+00 0. -1.
       22    1    1    2    0    0  0.95394488492E-03  0.44912163094E-03  0.22121584844E-02  0.24505848777E-02  0.00000000000E+00 0.  1.
</event>
<event>
 5   0  0.2147244E+06  0.9118800E+02  0.7546771E-02  0.1180000E+00
      -11   -1    0    0    0    0  0.00000000000E+00  0.00000000000E+00  0.34996269501E-01  0.35000000000E-01  0.51099999109E-03 0. -1.
       11   -1    0    0    0    0 -0.00000000000E+00 -0.00000000000E+00 -0.34996269501E-01  0.35000000000E-01  0.51099999109E-03 0.  1.
       22    1    1    2    0    0 -0.45986192020E-04  0.78085243456E-02  0.34008152618E-01  0.34893116967E-01  0.00000000000E+00 0. -1.
       22    1    1    2    0    0  0.43174688359E-04 -0.78109644471E-02 -0.34116097799E-01  0.34998873678E-01  0.00000000000E+00 0.  1.
       22    1    1    2    0    0  0.28115036616E-05  0.24401014748E-05  0.10794518150E-03  0.10800935542E-03  0.00000000000E+00 0. -1.
</event>
<event>
 5   0  0.2147244E+06  0.9118800E+02  0.7546771E-02  0.1180000E+00
      -11   -1    0    0    0    0  0.00000000000E+00  0.00000000000E+00  0.34996269501E-01  0.35000000000E-01  0.51099999109E-03 0. -1.
       11   -1    0    0    0    0 -0.00000000000E+00 -0.00000000000E+00 -0.34996269501E-01  0.35000000000E-01  0.51099999109E-03 0.  1.
       22    1    1    2    0    0  0.79989811507E-04 -0.48655095054E-02 -0.34660068932E-01  0.34999999421E-01  0.00000000000E+00 0.  1.
       22    1    1    2    0    0 -0.85265809996E-08  0.59586936320E-10  0.60771069760E-07  0.61366351153E-07  0.00000000000E+00 0. -1.
       22    1    1    2    0    0 -0.79981284926E-04  0.48655094458E-02  0.34660008161E-01  0.34999939213E-01  0.00000000000E+00 0. -1.
</event>
<event>
 5   0  0.2147244E+06  0.9118800E+02  0.7546771E-02  0.1180000E+00
      -11   -1    0    0    0    0  0.00000000000E+00  0.00000000000E+00  0.34996269501E-01  0.35000000000E-01  0.51099999109E-03 0.  1.
       11   -1    0    0    0    0 -0.00000000000E+00 -0.00000000000E+00 -0.34996269501E-01  0.35000000000E-01  0.51099999109E-03 0. -1.
       22    1    1    2    0    0  0.37164079392E-07  0.28766162236E-06  0.16240524436E-05  0.16497505016E-05  0.00000000000E+00 0. -1.
       22    1    1    2    0    0 -0.59982051891E-03 -0.17046712942E-02  0.34951685497E-01  0.34998371505E-01  0.00000000000E+00 0.  1.
       22    1    1    2    0    0  0.59978335483E-03  0.17043836325E-02 -0.34953309550E-01  0.34999978745E-01  0.00000000000E+00 0. -1.
</event>
<event>
 5   0  0.2147244E+06  0.9118800E+02  0.7546771E-02  0.1180000E+00
      -11   -1    0    0    0    0  0.00000000000E+00  0.00000000000E+00  0.34996269501E-01  0.35000000000E-01  0.51099999109E-03 0.  1.
       11   -1    0    0    0    0 -0.00000000000E+00 -0.00000000000E+00 -0.34996269501E-01  0.35000000000E-01  0.51099999109E-03 0. -1.
       22    1    1    2    0    0  0.44058508090E-03 -0.16477394979E-02 -0.34958415728E-01  0.34999999869E-01  0.00000000000E+00 0. -1.
       22    1    1    2    0    0 -0.44058459247E-03  0.16477393241E-02  0.34958415377E-01  0.34999999504E-01  0.00000000000E+00 0.  1.
       22    1    1    2    0    0 -0.48843943288E-09  0.17383703080E-09  0.35110698257E-09  0.62615373997E-09  0.00000000000E+00 0. -1.
</event>
<event>
 5   0  0.2147244E+06  0.9118800E+02  0.7546771E-02  0.1180000E+00
      -11   -1    0    0    0    0  0.00000000000E+00  0.00000000000E+00  0.34996269501E-01  0.35000000000E-01  0.51099999109E-03 0.  1.
       11   -1    0    0    0    0 -0.00000000000E+00 -0.00000000000E+00 -0.34996269501E-01  0.35000000000E-01  0.51099999109E-03 0. -1.
       22    1    1    2    0    0 -0.15061829203E-01 -0.15424304010E-01  0.27572305064E-01  0.34999997995E-01  0.00000000000E+00 0.  1.
       22    1    1    2    0    0 -0.12579179908E-09 -0.47885060528E-10  0.21982169803E-08  0.22023338639E-08  0.00000000000E+00 0. -1.
       22    1    1    2    0    0  0.15061829329E-01  0.15424304057E-01 -0.27572307263E-01  0.34999999802E-01  0.00000000000E+00 0. -1.
</event>
<event>
 5   0  0.2147244E+06  0.9118800E+02  0.7546771E-02  0.1180000E+00
      -11   -1    0    0    0    0  0.00000000000E+00  0.00000000000E+00  0.34996269501E-01  0.35000000000E-01  0.51099999109E-03 0. -1.
       11   -1    0    0    0    0 -0.00000000000E+00 -0.00000000000E+00 -0.34996269501E-01  0.35000000000E-01  0.51099999109E-03 0.  1.
       22    1    1    2    0    0  0.72370476417E-04  0.15187670960E-02  0.34966899102E-01  0.34999941769E-01  0.00000000000E+00 0. -1.
       22    1    1    2    0    0  0.29671532343E-09  0.48126521177E-08  0.58053992269E-07  0.58253889816E-07  0.00000000000E+00 0. -1.
       22    1    1    2    0    0 -0.72370773132E-04 -0.15187719087E-02 -0.34966957156E-01  0.34999999977E-01  0.00000000000E+00 0.  1.
</event>
<event>
 5   0  0.2147244E+06  0.9118800E+02  0.7546771E-02  0.1180000E+00
      -11   -1    0    0    0    0  0.00000000000E+00  0.00000000000E+00  0.34996269501E-01  0.35000000000E-01  0.51099999109E-03 0. -1.
       11   -1    0    0    0    0 -0.00000000000E+00 -0.00000000000E+00 -0.34996269501E-01  0.35000000000E-01  0.51099999109E-03 0.  1.
       22    1    1    2    0    0 -0.97611747980E-02 -0.81464842091E-02 -0.23184008996E-01  0.26441331501E-01  0.00000000000E+00 0.  1.
       22    1    1    2    0    0  0.93892987945E-02  0.87666964017E-02  0.32119995945E-01  0.34593468129E-01  0.00000000000E+00 0. -1.
       22    1    1    2    0    0  0.37187600350E-03 -0.62021219261E-03 -0.89359869495E-02  0.89652003707E-02  0.00000000000E+00 0. -1.
</event>
<event>
 5   0  0.2147244E+06  0.9118800E+02  0.7546771E-02  0.1180000E+00
      -11   -1    0    0    0    0  0.00000000000E+00  0.00000000000E+00  0.34996269501E-01  0.35000000000E-01  0.51099999109E-03 0.  1.
       11   -1    0    0    0    0 -0.00000000000E+00 -0.00000000000E+00 -0.34996269501E-01  0.35000000000E-01  0.51099999109E-03 0.  1.
       22    1    1    2    0    0  0.51607702035E-03  0.97383757486E-04 -0.34996052780E-01  0.34999993275E-01  0.00000000000E+00 0.  1.
       22    1    1    2    0    0  0.24061224201E-06 -0.22238080707E-06  0.54113670279E-05  0.54212766563E-05  0.00000000000E+00 0.  1.
       22    1    1    2    0    0 -0.51631763259E-03 -0.97161376679E-04  0.34990641413E-01  0.34994585448E-01  0.00000000000E+00 0.  1.
</event>
<event>
 5   0  0.2147244E+06  0.9118800E+02  0.7546771E-02  0.1180000E+00
      -11   -1    0    0    0    0  0.00000000000E+00  0.00000000000E+00  0.34996269501E-01  0.35000000000E-01  0.51099999109E-03 0. -1.
       11   -1    0    0    0    0 -0.00000000000E+00 -0.00000000000E+00 -0.34996269501E-01  0.35000000000E-01  0.51099999109E-03 0.  1.
       22    1    1    2    0    0 -0.23980951777E-02  0.45093009572E-02 -0.34625355175E-01  0.34999998237E-01  0.00000000000E+00 0.  1.
       22    1    1    2    0    0  0.13306146591E-07 -0.10891112607E-07  0.23661501054E-07  0.29249555604E-07  0.00000000000E+00 0. -1.
       22    1    1    2    0    0  0.23980818715E-02 -0.45092900661E-02  0.34625331513E-01  0.34999972514E-01  0.00000000000E+00 0. -1.
</event>
<event>
 5   0  0.2147244E+06  0.9118800E+02  0.7546771E-02  0.1180000E+00
      -11   -1    0    0    0    0  0.00000000000E+00  0.00000000000E+00  0.34996269501E-01  0.35000000000E-01  0.51099999109E-03 0.  1.
       11   -1    0    0    0    0 -0.00000000000E+00 -0.00000000000E+00 -0.34996269501E-01  0.35000000000E-01  0.51099999109E-03 0. -1.
       22    1    1    2    0    0 -0.17744729735E-01 -0.19672836811E-02  0.29214146839E-01  0.34237581895E-01  0.00000000000E+00 0.  1.
       22    1    1    2    0    0 -0.11369476288E-04  0.25896277638E-04  0.81877213732E-03  0.81926045617E-03  0.00000000000E+00 0. -1.
       22    1    1    2    0    0  0.17756099211E-01  0.19413874035E-02 -0.30032918976E-01  0.34943157649E-01  0.00000000000E+00 0. -1.
</event>
<event>
 5   0  0.2147244E+06  0.9118800E+02  0.7546771E-02  0.1180000E+00
      -11   -1    0    0    0    0  0.00000000000E+00  0.00000000000E+00  0.34996269501E-01  0.35000000000E-01  0.51099999109E-03 0. -1.
       11   -1    0    0    0    0 -0.00000000000E+00 -0.00000000000E+00 -0.34996269501E-01  0.35000000000E-01  0.51099999109E-03 0.  1.
       22    1    1    2    0    0  0.39168140392E-04 -0.79454165443E-02 -0.34058641177E-01  0.34973164241E-01  0.00000000000E+00 0.  1.
       22    1    1    2    0    0 -0.30071211456E-04  0.79964203096E-02  0.34047383244E-01  0.34973818033E-01  0.00000000000E+00 0. -1.
       22    1    1    2    0    0 -0.90969289367E-05 -0.51003765240E-04  0.11257933567E-04  0.53017725837E-04  0.00000000000E+00 0.  1.
</event>
<event>
 5   0  0.2147244E+06  0.9118800E+02  0.7546771E-02  0.1180000E+00
      -11   -1    0    0    0    0  0.00000000000E+00  0.00000000000E+00  0.34996269501E-01  0.35000000000E-01  0.51099999109E-03 0.  1.
       11   -1    0    0    0    0 -0.00000000000E+00 -0.00000000000E+00 -0.34996269501E-01  0.35000000000E-01  0.51099999109E-03 0. -1.
       22    1    1    2    0    0 -0.18356948322E-01 -0.94404804367E-02  0.28263762950E-01  0.34999150257E-01  0.00000000000E+00 0.  1.
       22    1    1    2    0    0  0.42723111159E-07 -0.52076248950E-08  0.95129147852E-06  0.95226459594E-06  0.00000000000E+00 0.  1.
       22    1    1    2    0    0  0.18356905599E-01  0.94404856443E-02 -0.28264714242E-01  0.34999897479E-01  0.00000000000E+00 0. -1.
</event>
<event>
 5   0  0.2147244E+06  0.9118800E+02  0.7546771E-02  0.1180000E+00
      -11   -1    0    0    0    0  0.00000000000E+00  0.00000000000E+00  0.34996269501E-01  0.35000000000E-01  0.51099999109E-03 0.  1.
       11   -1    0    0    0    0 -0.00000000000E+00 -0.00000000000E+00 -0.34996269501E-01  0.35000000000E-01  0.51099999109E-03 0. -1.
       22    1    1    2    0    0 -0.46276659675E-07 -0.19825544074E-07  0.41102326726E-07  0.64992174073E-07  0.00000000000E+00 0. -1.
       22    1    1    2    0    0 -0.22043138464E-01 -0.14200206498E-01  0.23182960399E-01  0.34999935297E-01  0.00000000000E+00 0.  1.
       22    1    1    2    0    0  0.22043184740E-01  0.14200226324E-01 -0.23183001501E-01  0.34999999711E-01  0.00000000000E+00 0. -1.
</event>
<event>
 5   0  0.2147244E+06  0.9118800E+02  0.7546771E-02  0.1180000E+00
      -11   -1    0    0    0    0  0.00000000000E+00  0.00000000000E+00  0.34996269501E-01  0.35000000000E-01  0.51099999109E-03 0.  1.
       11   -1    0    0    0    0 -0.00000000000E+00 -0.00000000000E+00 -0.34996269501E-01  0.35000000000E-01  0.51099999109E-03 0. -1.
       22    1    1    2    0    0 -0.28913484470E-01  0.34738677120E-02 -0.19415009846E-01  0.34999999263E-01  0.00000000000E+00 0. -1.
       22    1    1    2    0    0  0.28913482616E-01 -0.34738672668E-02  0.19415003640E-01  0.34999994244E-01  0.00000000000E+00 0.  1.
       22    1    1    2    0    0  0.18542253421E-08 -0.44519459132E-09  0.62067314472E-08  0.64930628443E-08  0.00000000000E+00 0. -1.
</event>
<event>
 5   0  0.2147244E+06  0.9118800E+02  0.7546771E-02  0.1180000E+00
      -11   -1    0    0    0    0  0.00000000000E+00  0.00000000000E+00  0.34996269501E-01  0.35000000000E-01  0.51099999109E-03 0.  1.
       11   -1    0    0    0    0 -0.00000000000E+00 -0.00000000000E+00 -0.34996269501E-01  0.35000000000E-01  0.51099999109E-03 0. -1.
       22    1    1    2    0    0 -0.40304741607E-02 -0.15855797214E-02 -0.34597043025E-01  0.34867092955E-01  0.00000000000E+00 0. -1.
       22    1    1    2    0    0  0.35518467705E-02  0.60374392313E-04  0.30920347963E-01  0.31123739793E-01  0.00000000000E+00 0.  1.
       22    1    1    2    0    0  0.47862739019E-03  0.15252053291E-02  0.36766950622E-02  0.40091672520E-02  0.00000000000E+00 0.  1.
</event>
<event>
 5   0  0.2147244E+06  0.9118800E+02  0.7546771E-02  0.1180000E+00
      -11   -1    0    0    0    0  0.00000000000E+00  0.00000000000E+00  0.34996269501E-01  0.35000000000E-01  0.51099999109E-03 0. -1.
       11   -1    0    0    0    0 -0.00000000000E+00 -0.00000000000E+00 -0.34996269501E-01  0.35000000000E-01  0.51099999109E-03 0. -1.
       22    1    1    2    0    0  0.11369061361E-12  0.14874593005E-10 -0.35000021098E-01  0.34999962079E-01  0.00000000000E+00 0. -1.
       22    1    1    2    0    0  0.20998417168E-08  0.27473060369E-06  0.45969656121E-06  0.53553920708E-06  0.00000000000E+00 0. -1.
       22    1    1    2    0    0 -0.20999554074E-08 -0.27474547828E-06  0.34999561402E-01  0.34999502382E-01  0.00000000000E+00 0. -1.
</event>
<event>
 5   0  0.2147244E+06  0.9118800E+02  0.7546771E-02  0.1180000E+00
      -11   -1    0    0    0    0  0.00000000000E+00  0.00000000000E+00  0.34996269501E-01  0.35000000000E-01  0.51099999109E-03 0.  1.
       11   -1    0    0    0    0 -0.00000000000E+00 -0.00000000000E+00 -0.34996269501E-01  0.35000000000E-01  0.51099999109E-03 0. -1.
       22    1    1    2    0    0 -0.17831754807E-03  0.64370800154E-03  0.10126615053E-02  0.12131118924E-02  0.00000000000E+00 0.  1.
       22    1    1    2    0    0  0.32966185353E-01  0.66135127038E-02  0.68114923721E-02  0.34306039634E-01  0.00000000000E+00 0.  1.
       22    1    1    2    0    0 -0.32787867805E-01 -0.72572207054E-02 -0.78241538774E-02  0.34480848474E-01  0.00000000000E+00 0. -1.
</event>
<event>
 5   0  0.2147244E+06  0.9118800E+02  0.7546771E-02  0.1180000E+00
      -11   -1    0    0    0    0  0.00000000000E+00  0.00000000000E+00  0.34996269501E-01  0.35000000000E-01  0.51099999109E-03 0. -1.
       11   -1    0    0    0    0 -0.00000000000E+00 -0.00000000000E+00 -0.34996269501E-01  0.35000000000E-01  0.51099999109E-03 0.  1.
       22    1    1    2    0    0 -0.86972185004E-03  0.20221589288E-02 -0.34773708063E-01  0.34843310912E-01  0.00000000000E+00 0.  1.
       22    1    1    2    0    0  0.17418615866E-02 -0.77808743789E-03  0.31385529247E-01  0.31443456362E-01  0.00000000000E+00 0. -1.
       22    1    1    2    0    0 -0.87213973658E-03 -0.12440714909E-02  0.33881788159E-02  0.37132327268E-02  0.00000000000E+00 0. -1.
</event>
<event>
 5   0  0.2147244E+06  0.9118800E+02  0.7546771E-02  0.1180000E+00
      -11   -1    0    0    0    0  0.00000000000E+00  0.00000000000E+00  0.34996269501E-01  0.35000000000E-01  0.51099999109E-03 0.  1.
       11   -1    0    0    0    0 -0.00000000000E+00 -0.00000000000E+00 -0.34996269501E-01  0.35000000000E-01  0.51099999109E-03 0. -1.
       22    1    1    2    0    0 -0.10589606386E-01  0.16988344777E-02 -0.32934487996E-01  0.34636776720E-01  0.00000000000E+00 0. -1.
       22    1    1    2    0    0  0.10792539022E-01 -0.17988834169E-02  0.33233481465E-01  0.34988271897E-01  0.00000000000E+00 0.  1.
       22    1    1    2    0    0 -0.20293263613E-03  0.10004893919E-03 -0.29899346894E-03  0.37495138286E-03  0.00000000000E+00 0.  1.
</event>
<event>
 5   0  0.2147244E+06  0.9118800E+02  0.7546771E-02  0.1180000E+00
      -11   -1    0    0    0    0  0.00000000000E+00  0.00000000000E+00  0.34996269501E-01  0.35000000000E-01  0.51099999109E-03 0.  1.
       11   -1    0    0    0    0 -0.00000000000E+00 -0.00000000000E+00 -0.34996269501E-01  0.35000000000E-01  0.51099999109E-03 0. -1.
       22    1    1    2    0    0 -0.12154121943E-02  0.51196281555E-03 -0.34964694193E-01  0.34989558053E-01  0.00000000000E+00 0. -1.
       22    1    1    2    0    0 -0.96000435848E-05  0.33091883743E-04  0.19611767744E-04  0.39646627102E-04  0.00000000000E+00 0. -1.
       22    1    1    2    0    0  0.12250122379E-02 -0.54505469930E-03  0.34945082425E-01  0.34970795320E-01  0.00000000000E+00 0.  1.
</event>
<event>
 5   0  0.2147244E+06  0.9118800E+02  0.7546771E-02  0.1180000E+00
      -11   -1    0    0    0    0  0.00000000000E+00  0.00000000000E+00  0.34996269501E-01  0.35000000000E-01  0.51099999109E-03 0. -1.
       11   -1    0    0    0    0 -0.00000000000E+00 -0.00000000000E+00 -0.34996269501E-01  0.35000000000E-01  0.51099999109E-03 0.  1.
       22    1    1    2    0    0  0.25476058074E-02  0.96754008966E-02  0.33539015860E-01  0.34999560893E-01  0.00000000000E+00 0. -1.
       22    1    1    2    0    0 -0.25477785906E-02 -0.96754289721E-02 -0.33539436063E-01  0.34999983900E-01  0.00000000000E+00 0.  1.
       22    1    1    2    0    0  0.17278324908E-06  0.28075501742E-07  0.42020344395E-06  0.45520678738E-06  0.00000000000E+00 0. -1.
</event>
<event>
 5   0  0.2147244E+06  0.9118800E+02  0.7546771E-02  0.1180000E+00
      -11   -1    0    0    0    0  0.00000000000E+00  0.00000000000E+00  0.34996269501E-01  0.35000000000E-01  0.51099999109E-03 0.  1.
       11   -1    0    0    0    0 -0.00000000000E+00 -0.00000000000E+00 -0.34996269501E-01  0.35000000000E-01  0.51099999109E-03 0. -1.
       22    1    1    2    0    0  0.50613449807E-03 -0.18246508900E-02 -0.34947144394E-01  0.34998406025E-01  0.00000000000E+00 0. -1.
       22    1    1    2    0    0 -0.54302257681E-05 -0.10667055256E-05  0.31736674420E-05  0.63794496318E-05  0.00000000000E+00 0.  1.
       22    1    1    2    0    0 -0.50070427230E-03  0.18257175955E-02  0.34943970727E-01  0.34995214525E-01  0.00000000000E+00 0.  1.
</event>
<event>
 5   0  0.2147244E+06  0.9118800E+02  0.7546771E-02  0.1180000E+00
      -11   -1    0    0    0    0  0.00000000000E+00  0.00000000000E+00  0.34996269501E-01  0.35000000000E-01  0.51099999109E-03 0.  1.
       11   -1    0    0    0    0 -0.00000000000E+00 -0.00000000000E+00 -0.34996269501E-01  0.35000000000E-01  0.51099999109E-03 0. -1.
       22    1    1    2    0    0  0.18321953485E-02 -0.29586307148E-02 -0.34821735252E-01  0.34995195120E-01  0.00000000000E+00 0. -1.
       22    1    1    2    0    0 -0.11817869484E-02  0.16575302254E-02  0.23917588809E-01  0.24004063849E-01  0.00000000000E+00 0.  1.
       22    1    1    2    0    0 -0.65040840014E-03  0.13011004894E-02  0.10904146444E-01  0.11000741031E-01  0.00000000000E+00 0.  1.
</event>
<event>
 5   0  0.2147244E+06  0.9118800E+02  0.7546771E-02  0.1180000E+00
      -11   -1    0    0    0    0  0.00000000000E+00  0.00000000000E+00  0.34996269501E-01  0.35000000000E-01  0.51099999109E-03 0.  1.
       11   -1    0    0    0    0 -0.00000000000E+00 -0.00000000000E+00 -0.34996269501E-01  0.35000000000E-01  0.51099999109E-03 0. -1.
       22    1    1    2    0    0  0.10936275157E-03 -0.34664728842E-03 -0.13878221021E-02  0.14346340094E-02  0.00000000000E+00 0. -1.
       22    1    1    2    0    0  0.26449079525E-01  0.16259687813E-01 -0.13922288757E-01  0.34025892784E-01  0.00000000000E+00 0. -1.
       22    1    1    2    0    0 -0.26558442276E-01 -0.15913040525E-01  0.15310110859E-01  0.34539473207E-01  0.00000000000E+00 0.  1.
</event>
<event>
 5   0  0.2147244E+06  0.9118800E+02  0.7546771E-02  0.1180000E+00
      -11   -1    0    0    0    0  0.00000000000E+00  0.00000000000E+00  0.34996269501E-01  0.35000000000E-01  0.51099999109E-03 0. -1.
       11   -1    0    0    0    0 -0.00000000000E+00 -0.00000000000E+00 -0.34996269501E-01  0.35000000000E-01  0.51099999109E-03 0.  1.
       22    1    1    2    0    0  0.47570568861E-03 -0.46570827902E-03 -0.34993665258E-01  0.34999996976E-01  0.00000000000E+00 0.  1.
       22    1    1    2    0    0 -0.47572599228E-03  0.46569407841E-03  0.34993616666E-01  0.34999948479E-01  0.00000000000E+00 0. -1.
       22    1    1    2    0    0  0.20303661414E-07  0.14200614400E-07  0.48592588488E-07  0.54544805179E-07  0.00000000000E+00 0.  1.
</event>
<event>
 5   0  0.2147244E+06  0.9118800E+02  0.7546771E-02  0.1180000E+00
      -11   -1    0    0    0    0  0.00000000000E+00  0.00000000000E+00  0.34996269501E-01  0.35000000000E-01  0.51099999109E-03 0.  1.
       11   -1    0    0    0    0 -0.00000000000E+00 -0.00000000000E+00 -0.34996269501E-01  0.35000000000E-01  0.51099999109E-03 0. -1.
       22    1    1    2    0    0 -0.14278570851E-03  0.80929612469E-03 -0.18571601238E-02  0.20308598429E-02  0.00000000000E+00 0.  1.
       22    1    1    2    0    0  0.85053501685E-02  0.85681633135E-02  0.32596850714E-01  0.34760740506E-01  0.00000000000E+00 0.  1.
       22    1    1    2    0    0 -0.83625644600E-02 -0.93774594382E-02 -0.30739690590E-01  0.33208399652E-01  0.00000000000E+00 0. -1.
</event>
<event>
 5   0  0.2147244E+06  0.9118800E+02  0.7546771E-02  0.1180000E+00
      -11   -1    0    0    0    0  0.00000000000E+00  0.00000000000E+00  0.34996269501E-01  0.35000000000E-01  0.51099999109E-03 0.  1.
       11   -1    0    0    0    0 -0.00000000000E+00 -0.00000000000E+00 -0.34996269501E-01  0.35000000000E-01  0.51099999109E-03 0. -1.
       22    1    1    2    0    0  0.10603574935E-01 -0.15465360879E-01  0.29509300252E-01  0.34963008879E-01  0.00000000000E+00 0.  1.
       22    1    1    2    0    0 -0.10538323422E-01  0.15490037116E-01 -0.29015832985E-01  0.34538617144E-01  0.00000000000E+00 0. -1.
       22    1    1    2    0    0 -0.65251512180E-04 -0.24676237512E-04 -0.49346726734E-03  0.49837397652E-03  0.00000000000E+00 0.  1.
</event>
<event>
 5   0  0.2147244E+06  0.9118800E+02  0.7546771E-02  0.1180000E+00
      -11   -1    0    0    0    0  0.00000000000E+00  0.00000000000E+00  0.34996269501E-01  0.35000000000E-01  0.51099999109E-03 0.  1.
       11   -1    0    0    0    0 -0.00000000000E+00 -0.00000000000E+00 -0.34996269501E-01  0.35000000000E-01  0.51099999109E-03 0. -1.
       22    1    1    2    0    0  0.28359780883E-06 -0.61615062541E-08  0.19342609813E-05  0.19549504406E-05  0.00000000000E+00 0. -1.
       22    1    1    2    0    0  0.51726592404E-02 -0.94463874045E-03  0.34600786567E-01  0.34998045331E-01  0.00000000000E+00 0.  1.
       22    1    1    2    0    0 -0.51729428382E-02  0.94464490195E-03 -0.34602720828E-01  0.34999999718E-01  0.00000000000E+00 0. -1.
</event>
<event>
 5   0  0.2147244E+06  0.9118800E+02  0.7546771E-02  0.1180000E+00
      -11   -1    0    0    0    0  0.00000000000E+00  0.00000000000E+00  0.34996269501E-01  0.35000000000E-01  0.51099999109E-03 0.  1.
       11   -1    0    0    0    0 -0.00000000000E+00 -0.00000000000E+00 -0.34996269501E-01  0.35000000000E-01  0.51099999109E-03 0. -1.
       22    1    1    2    0    0 -0.69689935359E-03 -0.19417534105E-02  0.34877325031E-01  0.34938286683E-01  0.00000000000E+00 0.  1.
       22    1    1    2    0    0  0.58798718689E-03  0.14087700660E-02 -0.33966601716E-01  0.34000888138E-01  0.00000000000E+00 0. -1.
       22    1    1    2    0    0  0.10891216670E-03  0.53298334449E-03 -0.91072331456E-03  0.10608251794E-02  0.00000000000E+00 0. -1.
</event>
<event>
 5   0  0.2147244E+06  0.9118800E+02  0.7546771E-02  0.1180000E+00
      -11   -1    0    0    0    0  0.00000000000E+00  0.00000000000E+00  0.34996269501E-01  0.35000000000E-01  0.51099999109E-03 0. -1.
       11   -1    0    0    0    0 -0.00000000000E+00 -0.00000000000E+00 -0.34996269501E-01  0.35000000000E-01  0.51099999109E-03 0.  1.
       22    1    1    2    0    0 -0.56412388194E-03  0.45688642528E-02  0.24860336974E-01  0.25282980654E-01  0.00000000000E+00 0. -1.
       22    1    1    2    0    0  0.14835506198E-03 -0.12313754334E-02  0.98079061393E-02  0.98860162613E-02  0.00000000000E+00 0.  1.
       22    1    1    2    0    0  0.41576881996E-03 -0.33374888194E-02 -0.34668243113E-01  0.34831003084E-01  0.00000000000E+00 0.  1.
</event>
<event>
 5   0  0.2147244E+06  0.9118800E+02  0.7546771E-02  0.1180000E+00
      -11   -1    0    0    0    0  0.00000000000E+00  0.00000000000E+00  0.34996269501E-01  0.35000000000E-01  0.51099999109E-03 0.  1.
       11   -1    0    0    0    0 -0.00000000000E+00 -0.00000000000E+00 -0.34996269501E-01  0.35000000000E-01  0.51099999109E-03 0. -1.
       22    1    1    2    0    0  0.37596904428E-02 -0.15600189919E-01  0.30989530492E-01  0.34897739151E-01  0.00000000000E+00 0.  1.
       22    1    1    2    0    0 -0.37045048219E-02  0.15740486472E-01 -0.29812828345E-01  0.33915940269E-01  0.00000000000E+00 0. -1.
       22    1    1    2    0    0 -0.55185620875E-04 -0.14029655351E-03 -0.11767021470E-02  0.11863205800E-02  0.00000000000E+00 0.  1.
</event>
<event>
 5   0  0.2147244E+06  0.9118800E+02  0.7546771E-02  0.1180000E+00
      -11   -1    0    0    0    0  0.00000000000E+00  0.00000000000E+00  0.34996269501E-01  0.35000000000E-01  0.51099999109E-03 0. -1.
       11   -1    0    0    0    0 -0.00000000000E+00 -0.00000000000E+00 -0.34996269501E-01  0.35000000000E-01  0.51099999109E-03 0.  1.
       22    1    1    2    0    0  0.45333218624E-03  0.45458144732E-02 -0.28833821760E-01  0.29193479008E-01  0.00000000000E+00 0.  1.
       22    1    1    2    0    0 -0.22748507956E-02 -0.47525599659E-02  0.34474811926E-01  0.34875126232E-01  0.00000000000E+00 0. -1.
       22    1    1    2    0    0  0.18215186093E-02  0.20674549272E-03 -0.56409901660E-02  0.59313947597E-02  0.00000000000E+00 0. -1.
</event>
<event>
 5   0  0.2147244E+06  0.9118800E+02  0.7546771E-02  0.1180000E+00
      -11   -1    0    0    0    0  0.00000000000E+00  0.00000000000E+00  0.34996269501E-01  0.35000000000E-01  0.51099999109E-03 0. -1.
       11   -1    0    0    0    0 -0.00000000000E+00 -0.00000000000E+00 -0.34996269501E-01  0.35000000000E-01  0.51099999109E-03 0.  1.
       22    1    1    2    0    0 -0.25297950111E-04 -0.36087304954E-05  0.43473187339E-02  0.43473938381E-02  0.00000000000E+00 0.  1.
       22    1    1    2    0    0  0.88698908895E-02 -0.60792364495E-02  0.28836261233E-01  0.30775997824E-01  0.00000000000E+00 0. -1.
       22    1    1    2    0    0 -0.88445929394E-02  0.60828451800E-02 -0.33183579967E-01  0.34876608338E-01  0.00000000000E+00 0.  1.
</event>
<event>
 5   0  0.2147244E+06  0.9118800E+02  0.7546771E-02  0.1180000E+00
      -11   -1    0    0    0    0  0.00000000000E+00  0.00000000000E+00  0.34996269501E-01  0.35000000000E-01  0.51099999109E-03 0.  1.
       11   -1    0    0    0    0 -0.00000000000E+00 -0.00000000000E+00 -0.34996269501E-01  0.35000000000E-01  0.51099999109E-03 0. -1.
       22    1    1    2    0    0  0.81969716065E-02  0.21360056398E-02  0.23585006514E-01  0.25060035832E-01  0.00000000000E+00 0.  1.
       22    1    1    2    0    0  0.27539117506E-02 -0.73966147574E-02 -0.30125576092E-01  0.31142322885E-01  0.00000000000E+00 0. -1.
       22    1    1    2    0    0 -0.10950883357E-01  0.52606091176E-02  0.65405695773E-02  0.13797641283E-01  0.00000000000E+00 0.  1.
</event>
<event>
 5   0  0.2147244E+06  0.9118800E+02  0.7546771E-02  0.1180000E+00
      -11   -1    0    0    0    0  0.00000000000E+00  0.00000000000E+00  0.34996269501E-01  0.35000000000E-01  0.51099999109E-03 0. -1.
       11   -1    0    0    0    0 -0.00000000000E+00 -0.00000000000E+00 -0.34996269501E-01  0.35000000000E-01  0.51099999109E-03 0.  1.
       22    1    1    2    0    0 -0.19344388641E-06  0.16469874140E-06  0.44936684342E-06  0.51621388258E-06  0.00000000000E+00 0.  1.
       22    1    1    2    0    0 -0.28570081109E-03 -0.40574963987E-03  0.34995999204E-01  0.34999517397E-01  0.00000000000E+00 0. -1.
       22    1    1    2    0    0  0.28589425498E-03  0.40558494113E-03 -0.34996448571E-01  0.34999966389E-01  0.00000000000E+00 0.  1.
</event>
<event>
 5   0  0.2147244E+06  0.9118800E+02  0.7546771E-02  0.1180000E+00
      -11   -1    0    0    0    0  0.00000000000E+00  0.00000000000E+00  0.34996269501E-01  0.35000000000E-01  0.51099999109E-03 0.  1.
       11   -1    0    0    0    0 -0.00000000000E+00 -0.00000000000E+00 -0.34996269501E-01  0.35000000000E-01  0.51099999109E-03 0.  1.
       22    1    1    2    0    0 -0.43299452694E-03 -0.37698434573E-03 -0.34892234024E-01  0.34896956839E-01  0.00000000000E+00 0.  1.
       22    1    1    2    0    0 -0.87479704489E-04 -0.78897785888E-05  0.34003205781E-01  0.34003319225E-01  0.00000000000E+00 0.  1.
       22    1    1    2    0    0  0.52047423143E-03  0.38487412432E-03  0.88902824336E-03  0.10997239357E-02  0.00000000000E+00 0. -1.
</event>
<event>
 5   0  0.2147244E+06  0.9118800E+02  0.7546771E-02  0.1180000E+00
      -11   -1    0    0    0    0  0.00000000000E+00  0.00000000000E+00  0.34996269501E-01  0.35000000000E-01  0.51099999109E-03 0.  1.
       11   -1    0    0    0    0 -0.00000000000E+00 -0.00000000000E+00 -0.34996269501E-01  0.35000000000E-01  0.51099999109E-03 0. -1.
       22    1    1    2    0    0  0.59166238472E-02  0.33736180172E-02 -0.34326389450E-01  0.34995553274E-01  0.00000000000E+00 0. -1.
       22    1    1    2    0    0 -0.58396352918E-02 -0.32778812649E-02  0.34045499903E-01  0.34697866066E-01  0.00000000000E+00 0.  1.
       22    1    1    2    0    0 -0.76988555386E-04 -0.95736752354E-04  0.28088954691E-03  0.30658065982E-03  0.00000000000E+00 0.  1.
</event>
<event>
 5   0  0.2147244E+06  0.9118800E+02  0.7546771E-02  0.1180000E+00
      -11   -1    0    0    0    0  0.00000000000E+00  0.00000000000E+00  0.34996269501E-01  0.35000000000E-01  0.51099999109E-03 0.  1.
       11   -1    0    0    0    0 -0.00000000000E+00 -0.00000000000E+00 -0.34996269501E-01  0.35000000000E-01  0.51099999109E-03 0. -1.
       22    1    1    2    0    0  0.44094496847E-02 -0.36576340708E-02 -0.34519817818E-01  0.34991989879E-01  0.00000000000E+00 0. -1.
       22    1    1    2    0    0 -0.98908700932E-04  0.24137011340E-03  0.77073190211E-03  0.81367691849E-03  0.00000000000E+00 0. -1.
       22    1    1    2    0    0 -0.43105409837E-02  0.34162639574E-02  0.33749085916E-01  0.34194333202E-01  0.00000000000E+00 0.  1.
</event>
<event>
 5   0  0.2147244E+06  0.9118800E+02  0.7546771E-02  0.1180000E+00
      -11   -1    0    0    0    0  0.00000000000E+00  0.00000000000E+00  0.34996269501E-01  0.35000000000E-01  0.51099999109E-03 0.  1.
       11   -1    0    0    0    0 -0.00000000000E+00 -0.00000000000E+00 -0.34996269501E-01  0.35000000000E-01  0.51099999109E-03 0. -1.
       22    1    1    2    0    0  0.13363693695E-01  0.18257112952E-02  0.18525934266E-01  0.22915753781E-01  0.00000000000E+00 0.  1.
       22    1    1    2    0    0 -0.64574062753E-02 -0.11670069148E-02  0.13129231094E-01  0.14677762434E-01  0.00000000000E+00 0.  1.
       22    1    1    2    0    0 -0.69062874199E-02 -0.65870438035E-03 -0.31655165360E-01  0.32406483786E-01  0.00000000000E+00 0. -1.
</event>
<event>
 5   0  0.2147244E+06  0.9118800E+02  0.7546771E-02  0.1180000E+00
      -11   -1    0    0    0    0  0.00000000000E+00  0.00000000000E+00  0.34996269501E-01  0.35000000000E-01  0.51099999109E-03 0.  1.
       11   -1    0    0    0    0 -0.00000000000E+00 -0.00000000000E+00 -0.34996269501E-01  0.35000000000E-01  0.51099999109E-03 0. -1.
       22    1    1    2    0    0 -0.33614541904E-02 -0.81212609251E-03 -0.18172637869E-02  0.39065804402E-02  0.00000000000E+00 0. -1.
       22    1    1    2    0    0 -0.45209466749E-02 -0.37625081953E-02 -0.31247181976E-01  0.31795940121E-01  0.00000000000E+00 0. -1.
       22    1    1    2    0    0  0.78824008653E-02  0.45746342878E-02  0.33064445763E-01  0.34297479439E-01  0.00000000000E+00 0.  1.
</event>
<event>
 5   0  0.2147244E+06  0.9118800E+02  0.7546771E-02  0.1180000E+00
      -11   -1    0    0    0    0  0.00000000000E+00  0.00000000000E+00  0.34996269501E-01  0.35000000000E-01  0.51099999109E-03 0. -1.
       11   -1    0    0    0    0 -0.00000000000E+00 -0.00000000000E+00 -0.34996269501E-01  0.35000000000E-01  0.51099999109E-03 0.  1.
       22    1    1    2    0    0  0.27623893267E-04 -0.45808515225E-04  0.14620496465E-05  0.53512962313E-04  0.00000000000E+00 0. -1.
       22    1    1    2    0    0  0.92282508236E-04  0.15198776890E-02 -0.34941750810E-01  0.34974912350E-01  0.00000000000E+00 0.  1.
       22    1    1    2    0    0 -0.11990640150E-03 -0.14740691738E-02  0.34940288760E-01  0.34971574687E-01  0.00000000000E+00 0. -1.
</event>
<event>
 5   0  0.2147244E+06  0.9118800E+02  0.7546771E-02  0.1180000E+00
      -11   -1    0    0    0    0  0.00000000000E+00  0.00000000000E+00  0.34996269501E-01  0.35000000000E-01  0.51099999109E-03 0. -1.
       11   -1    0    0    0    0 -0.00000000000E+00 -0.00000000000E+00 -0.34996269501E-01  0.35000000000E-01  0.51099999109E-03 0. -1.
       22    1    1    2    0    0 -0.45555913325E-05 -0.10384866766E-03 -0.34999816246E-01  0.34999970607E-01  0.00000000000E+00 0. -1.
       22    1    1    2    0    0  0.56363602539E-05  0.10339044882E-03  0.34988350024E-01  0.34988503237E-01  0.00000000000E+00 0. -1.
       22    1    1    2    0    0 -0.10807689213E-05  0.45821884090E-06  0.11466221859E-04  0.11526155894E-04  0.00000000000E+00 0. -1.
</event>
<event>
 5   0  0.2147244E+06  0.9118800E+02  0.7546771E-02  0.1180000E+00
      -11   -1    0    0    0    0  0.00000000000E+00  0.00000000000E+00  0.34996269501E-01  0.35000000000E-01  0.51099999109E-03 0. -1.
       11   -1    0    0    0    0 -0.00000000000E+00 -0.00000000000E+00 -0.34996269501E-01  0.35000000000E-01  0.51099999109E-03 0.  1.
       22    1    1    2    0    0 -0.84157232871E-03 -0.19677569999E-03  0.34814925793E-01  0.34825651790E-01  0.00000000000E+00 0. -1.
       22    1    1    2    0    0  0.65283075944E-05 -0.54557042114E-05  0.17433381731E-03  0.17454129415E-03  0.00000000000E+00 0.  1.
       22    1    1    2    0    0  0.83504402112E-03  0.20223140421E-03 -0.34989259610E-01  0.34999806916E-01  0.00000000000E+00 0.  1.
</event>
<event>
 5   0  0.2147244E+06  0.9118800E+02  0.7546771E-02  0.1180000E+00
      -11   -1    0    0    0    0  0.00000000000E+00  0.00000000000E+00  0.34996269501E-01  0.35000000000E-01  0.51099999109E-03 0. -1.
       11   -1    0    0    0    0 -0.00000000000E+00 -0.00000000000E+00 -0.34996269501E-01  0.35000000000E-01  0.51099999109E-03 0.  1.
       22    1    1    2    0    0 -0.28163094774E-01 -0.15472528264E-01  0.13867289348E-01  0.34998010686E-01  0.00000000000E+00 0. -1.
       22    1    1    2    0    0 -0.20369364311E-06 -0.31945391296E-06  0.26113659500E-05  0.26387068855E-05  0.00000000000E+00 0.  1.
       22    1    1    2    0    0  0.28163298467E-01  0.15472847718E-01 -0.13869900714E-01  0.34999350607E-01  0.00000000000E+00 0.  1.
</event>
<event>
 5   0  0.2147244E+06  0.9118800E+02  0.7546771E-02  0.1180000E+00
      -11   -1    0    0    0    0  0.00000000000E+00  0.00000000000E+00  0.34996269501E-01  0.35000000000E-01  0.51099999109E-03 0. -1.
       11   -1    0    0    0    0 -0.00000000000E+00 -0.00000000000E+00 -0.34996269501E-01  0.35000000000E-01  0.51099999109E-03 0. -1.
       22    1    1    2    0    0  0.17522326989E-03 -0.11385390213E-02 -0.20179670908E-02  0.23236104400E-02  0.00000000000E+00 0. -1.
       22    1    1    2    0    0 -0.10705787197E-03  0.15710548158E-02 -0.32808951147E-01  0.32846719014E-01  0.00000000000E+00 0. -1.
       22    1    1    2    0    0 -0.68165397919E-04 -0.43251579455E-03  0.34826918238E-01  0.34829670546E-01  0.00000000000E+00 0. -1.
</event>
<event>
 5   0  0.2147244E+06  0.9118800E+02  0.7546771E-02  0.1180000E+00
      -11   -1    0    0    0    0  0.00000000000E+00  0.00000000000E+00  0.34996269501E-01  0.35000000000E-01  0.51099999109E-03 0.  1.
       11   -1    0    0    0    0 -0.00000000000E+00 -0.00000000000E+00 -0.34996269501E-01  0.35000000000E-01  0.51099999109E-03 0. -1.
       22    1    1    2    0    0 -0.16121400640E-04  0.16287031001E-04  0.49010780532E-04  0.54103821915E-04  0.00000000000E+00 0.  1.
       22    1    1    2    0    0 -0.56039013838E-03 -0.61121762027E-03 -0.34987630710E-01  0.34997456005E-01  0.00000000000E+00 0. -1.
       22    1    1    2    0    0  0.57651153902E-03  0.59493058927E-03  0.34938619930E-01  0.34948440173E-01  0.00000000000E+00 0.  1.
</event>
<event>
 5   0  0.2147244E+06  0.9118800E+02  0.7546771E-02  0.1180000E+00
      -11   -1    0    0    0    0  0.00000000000E+00  0.00000000000E+00  0.34996269501E-01  0.35000000000E-01  0.51099999109E-03 0. -1.
       11   -1    0    0    0    0 -0.00000000000E+00 -0.00000000000E+00 -0.34996269501E-01  0.35000000000E-01  0.51099999109E-03 0.  1.
       22    1    1    2    0    0  0.13503404055E-01 -0.64467691370E-02 -0.31638427699E-01  0.34998469405E-01  0.00000000000E+00 0.  1.
       22    1    1    2    0    0 -0.13498416082E-01  0.64453038097E-02  0.31586431416E-01  0.34949275064E-01  0.00000000000E+00 0. -1.
       22    1    1    2    0    0 -0.49879735549E-05  0.14653272366E-05  0.51996282999E-04  0.52255530902E-04  0.00000000000E+00 0. -1.
</event>
<event>
 5   0  0.2147244E+06  0.9118800E+02  0.7546771E-02  0.1180000E+00
      -11   -1    0    0    0    0  0.00000000000E+00  0.00000000000E+00  0.34996269501E-01  0.35000000000E-01  0.51099999109E-03 0. -1.
       11   -1    0    0    0    0 -0.00000000000E+00 -0.00000000000E+00 -0.34996269501E-01  0.35000000000E-01  0.51099999109E-03 0.  1.
       22    1    1    2    0    0 -0.30701829480E-01 -0.84808146915E-02 -0.13203008053E-01  0.34479645777E-01  0.00000000000E+00 0.  1.
       22    1    1    2    0    0  0.63193719882E-03  0.45844031825E-03  0.24851017193E-02  0.26048498429E-02  0.00000000000E+00 0. -1.
       22    1    1    2    0    0  0.30069892281E-01  0.80223743733E-02  0.10717906334E-01  0.32915504380E-01  0.00000000000E+00 0. -1.
</event>
<event>
 5   0  0.2147244E+06  0.9118800E+02  0.7546771E-02  0.1180000E+00
      -11   -1    0    0    0    0  0.00000000000E+00  0.00000000000E+00  0.34996269501E-01  0.35000000000E-01  0.51099999109E-03 0. -1.
       11   -1    0    0    0    0 -0.00000000000E+00 -0.00000000000E+00 -0.34996269501E-01  0.35000000000E-01  0.51099999109E-03 0.  1.
       22    1    1    2    0    0  0.42951339202E-02 -0.84980028595E-02 -0.33678095054E-01  0.34998261592E-01  0.00000000000E+00 0.  1.
       22    1    1    2    0    0  0.55539941337E-05 -0.25068410260E-05  0.47531273003E-04  0.47920277713E-04  0.00000000000E+00 0.  1.
       22    1    1    2    0    0 -0.43006879143E-02  0.85005097006E-02  0.33630563781E-01  0.34953818131E-01  0.00000000000E+00 0. -1.
</event>
<event>
 5   0  0.2147244E+06  0.9118800E+02  0.7546771E-02  0.1180000E+00
      -11   -1    0    0    0    0  0.00000000000E+00  0.00000000000E+00  0.34996269501E-01  0.35000000000E-01  0.51099999109E-03 0.  1.
       11   -1    0    0    0    0 -0.00000000000E+00 -0.00000000000E+00 -0.34996269501E-01  0.35000000000E-01  0.51099999109E-03 0. -1.
       22    1    1    2    0    0 -0.55355456577E-02 -0.22454162598E-01  0.25685269640E-01  0.34562476187E-01  0.00000000000E+00 0.  1.
       22    1    1    2    0    0 -0.87554991190E-03 -0.52912465695E-04 -0.17783560515E-02  0.19829114007E-02  0.00000000000E+00 0. -1.
       22    1    1    2    0    0  0.64110955696E-02  0.22507075064E-01 -0.23906913588E-01  0.33454612412E-01  0.00000000000E+00 0. -1.
</event>
<event>
 5   0  0.2147244E+06  0.9118800E+02  0.7546771E-02  0.1180000E+00
      -11   -1    0    0    0    0  0.00000000000E+00  0.00000000000E+00  0.34996269501E-01  0.35000000000E-01  0.51099999109E-03 0.  1.
       11   -1    0    0    0    0 -0.00000000000E+00 -0.00000000000E+00 -0.34996269501E-01  0.35000000000E-01  0.51099999109E-03 0.  1.
       22    1    1    2    0    0  0.39169617914E-03  0.52543411807E-05 -0.34995211102E-01  0.34997403526E-01  0.00000000000E+00 0.  1.
       22    1    1    2    0    0 -0.40659747863E-03 -0.49347402763E-04  0.34779930779E-01  0.34782342383E-01  0.00000000000E+00 0.  1.
       22    1    1    2    0    0  0.14901299490E-04  0.44093061582E-04  0.21528032311E-03  0.22025409037E-03  0.00000000000E+00 0.  1.
</event>
<event>
 5   0  0.2147244E+06  0.9118800E+02  0.7546771E-02  0.1180000E+00
      -11   -1    0    0    0    0  0.00000000000E+00  0.00000000000E+00  0.34996269501E-01  0.35000000000E-01  0.51099999109E-03 0. -1.
       11   -1    0    0    0    0 -0.00000000000E+00 -0.00000000000E+00 -0.34996269501E-01  0.35000000000E-01  0.51099999109E-03 0.  1.
       22    1    1    2    0    0  0.29273551414E-02  0.82013189317E-02  0.33830319677E-01  0.34933101348E-01  0.00000000000E+00 0. -1.
       22    1    1    2    0    0  0.71942712223E-04  0.22844429817E-03 -0.46960950395E-03  0.52715807630E-03  0.00000000000E+00 0. -1.
       22    1    1    2    0    0 -0.29992978537E-02 -0.84297632299E-02 -0.33360710173E-01  0.34539740575E-01  0.00000000000E+00 0.  1.
</event>
<event>
 5   0  0.2147244E+06  0.9118800E+02  0.7546771E-02  0.1180000E+00
      -11   -1    0    0    0    0  0.00000000000E+00  0.00000000000E+00  0.34996269501E-01  0.35000000000E-01  0.51099999109E-03 0.  1.
       11   -1    0    0    0    0 -0.00000000000E+00 -0.00000000000E+00 -0.34996269501E-01  0.35000000000E-01  0.51099999109E-03 0. -1.
       22    1    1    2    0    0  0.12925828146E-05 -0.18913524354E-05  0.34144221213E-05  0.41117226061E-05  0.00000000000E+00 0.  1.
       22    1    1    2    0    0  0.40099255017E-02 -0.13482066149E-02 -0.34742910331E-01  0.34999528309E-01  0.00000000000E+00 0. -1.
       22    1    1    2    0    0 -0.40112180845E-02  0.13500979674E-02  0.34739495909E-01  0.34996359968E-01  0.00000000000E+00 0.  1.
</event>
<event>
 5   0  0.2147244E+06  0.9118800E+02  0.7546771E-02  0.1180000E+00
      -11   -1    0    0    0    0  0.00000000000E+00  0.00000000000E+00  0.34996269501E-01  0.35000000000E-01  0.51099999109E-03 0. -1.
       11   -1    0    0    0    0 -0.00000000000E+00 -0.00000000000E+00 -0.34996269501E-01  0.35000000000E-01  0.51099999109E-03 0.  1.
       22    1    1    2    0    0 -0.12643064680E-02 -0.86064968309E-03  0.34949331862E-01  0.34982781283E-01  0.00000000000E+00 0. -1.
       22    1    1    2    0    0  0.77864712339E-04 -0.49876686023E-04 -0.10148641417E-03  0.13729562811E-03  0.00000000000E+00 0.  1.
       22    1    1    2    0    0  0.11864417556E-02  0.91052636911E-03 -0.34847845448E-01  0.34879923089E-01  0.00000000000E+00 0.  1.
</event>
<event>
 5   0  0.2147244E+06  0.9118800E+02  0.7546771E-02  0.1180000E+00
      -11   -1    0    0    0    0  0.00000000000E+00  0.00000000000E+00  0.34996269501E-01  0.35000000000E-01  0.51099999109E-03 0. -1.
       11   -1    0    0    0    0 -0.00000000000E+00 -0.00000000000E+00 -0.34996269501E-01  0.35000000000E-01  0.51099999109E-03 0.  1.
       22    1    1    2    0    0  0.43196350623E-03  0.44285981473E-03 -0.34994237253E-01  0.34999705116E-01  0.00000000000E+00 0.  1.
       22    1    1    2    0    0 -0.40282549301E-03 -0.42589226159E-03  0.34464699221E-01  0.34469684434E-01  0.00000000000E+00 0. -1.
       22    1    1    2    0    0 -0.29138013222E-04 -0.16967553140E-04  0.52953803260E-03  0.53061044999E-03  0.00000000000E+00 0. -1.
</event>
<event>
 5   0  0.2147244E+06  0.9118800E+02  0.7546771E-02  0.1180000E+00
      -11   -1    0    0    0    0  0.00000000000E+00  0.00000000000E+00  0.34996269501E-01  0.35000000000E-01  0.51099999109E-03 0. -1.
       11   -1    0    0    0    0 -0.00000000000E+00 -0.00000000000E+00 -0.34996269501E-01  0.35000000000E-01  0.51099999109E-03 0.  1.
       22    1    1    2    0    0 -0.16946486413E-02  0.48971746723E-03  0.34955318053E-01  0.34999798819E-01  0.00000000000E+00 0. -1.
       22    1    1    2    0    0  0.16947460724E-02 -0.48977954383E-03 -0.34955499747E-01  0.34999985869E-01  0.00000000000E+00 0.  1.
       22    1    1    2    0    0 -0.97431115301E-07  0.62076595977E-07  0.18169440683E-06  0.21531182845E-06  0.00000000000E+00 0. -1.
</event>
<event>
 5   0  0.2147244E+06  0.9118800E+02  0.7546771E-02  0.1180000E+00
      -11   -1    0    0    0    0  0.00000000000E+00  0.00000000000E+00  0.34996269501E-01  0.35000000000E-01  0.51099999109E-03 0.  1.
       11   -1    0    0    0    0 -0.00000000000E+00 -0.00000000000E+00 -0.34996269501E-01  0.35000000000E-01  0.51099999109E-03 0. -1.
       22    1    1    2    0    0 -0.72037830594E-06  0.61167034945E-06  0.65261470317E-06  0.11484735395E-05  0.00000000000E+00 0. -1.
       22    1    1    2    0    0 -0.25243317930E-01  0.82974961140E-02  0.22778238212E-01  0.34998881095E-01  0.00000000000E+00 0.  1.
       22    1    1    2    0    0  0.25244038309E-01 -0.82981077844E-02 -0.22778890826E-01  0.34999970431E-01  0.00000000000E+00 0. -1.
</event>
<event>
 5   0  0.2147244E+06  0.9118800E+02  0.7546771E-02  0.1180000E+00
      -11   -1    0    0    0    0  0.00000000000E+00  0.00000000000E+00  0.34996269501E-01  0.35000000000E-01  0.51099999109E-03 0.  1.
       11   -1    0    0    0    0 -0.00000000000E+00 -0.00000000000E+00 -0.34996269501E-01  0.35000000000E-01  0.51099999109E-03 0. -1.
       22    1    1    2    0    0  0.13815360225E-02 -0.11278622889E-04 -0.34969543718E-01  0.34996824954E-01  0.00000000000E+00 0. -1.
       22    1    1    2    0    0 -0.12799391282E-04  0.26109407700E-05  0.90378800711E-05  0.15884731823E-04  0.00000000000E+00 0.  1.
       22    1    1    2    0    0 -0.13687366312E-02  0.86676821187E-05  0.34960505838E-01  0.34987290314E-01  0.00000000000E+00 0.  1.
</event>
<event>
 5   0  0.2147244E+06  0.9118800E+02  0.7546771E-02  0.1180000E+00
      -11   -1    0    0    0    0  0.00000000000E+00  0.00000000000E+00  0.34996269501E-01  0.35000000000E-01  0.51099999109E-03 0. -1.
       11   -1    0    0    0    0 -0.00000000000E+00 -0.00000000000E+00 -0.34996269501E-01  0.35000000000E-01  0.51099999109E-03 0.  1.
       22    1    1    2    0    0 -0.22641131178E-03  0.74758761753E-03  0.34976981413E-01  0.34985702481E-01  0.00000000000E+00 0. -1.
       22    1    1    2    0    0  0.11756431771E-03 -0.84347868941E-03 -0.34598341672E-01  0.34608821479E-01  0.00000000000E+00 0.  1.
       22    1    1    2    0    0  0.10884699406E-03  0.95891071885E-04 -0.37863974081E-03  0.40547604012E-03  0.00000000000E+00 0. -1.
</event>
<event>
 5   0  0.2147244E+06  0.9118800E+02  0.7546771E-02  0.1180000E+00
      -11   -1    0    0    0    0  0.00000000000E+00  0.00000000000E+00  0.34996269501E-01  0.35000000000E-01  0.51099999109E-03 0. -1.
       11   -1    0    0    0    0 -0.00000000000E+00 -0.00000000000E+00 -0.34996269501E-01  0.35000000000E-01  0.51099999109E-03 0.  1.
       22    1    1    2    0    0  0.16420169430E-01  0.16501440079E-01  0.26128405467E-01  0.34994471864E-01  0.00000000000E+00 0. -1.
       22    1    1    2    0    0  0.93421351492E-06 -0.72150883414E-07  0.60571635288E-05  0.61292079959E-05  0.00000000000E+00 0.  1.
       22    1    1    2    0    0 -0.16421103643E-01 -0.16501367928E-01 -0.26134462630E-01  0.34999398928E-01  0.00000000000E+00 0.  1.
</event>
<event>
 5   0  0.2147244E+06  0.9118800E+02  0.7546771E-02  0.1180000E+00
      -11   -1    0    0    0    0  0.00000000000E+00  0.00000000000E+00  0.34996269501E-01  0.35000000000E-01  0.51099999109E-03 0. -1.
       11   -1    0    0    0    0 -0.00000000000E+00 -0.00000000000E+00 -0.34996269501E-01  0.35000000000E-01  0.51099999109E-03 0.  1.
       22    1    1    2    0    0 -0.79238219494E-04  0.33631758553E-04  0.55923703139E-03  0.56582315956E-03  0.00000000000E+00 0. -1.
       22    1    1    2    0    0 -0.31124316534E-02  0.25252324315E-02 -0.34759659405E-01  0.34989969300E-01  0.00000000000E+00 0.  1.
       22    1    1    2    0    0  0.31916698729E-02 -0.25588641900E-02  0.34200422374E-01  0.34444207540E-01  0.00000000000E+00 0. -1.
</event>
<event>
 5   0  0.2147244E+06  0.9118800E+02  0.7546771E-02  0.1180000E+00
      -11   -1    0    0    0    0  0.00000000000E+00  0.00000000000E+00  0.34996269501E-01  0.35000000000E-01  0.51099999109E-03 0.  1.
       11   -1    0    0    0    0 -0.00000000000E+00 -0.00000000000E+00 -0.34996269501E-01  0.35000000000E-01  0.51099999109E-03 0. -1.
       22    1    1    2    0    0  0.17362776976E-02  0.21728653776E-03  0.34955839591E-01  0.34999608500E-01  0.00000000000E+00 0.  1.
       22    1    1    2    0    0 -0.17363921658E-02 -0.21724044277E-03 -0.34956218846E-01  0.34999992674E-01  0.00000000000E+00 0. -1.
       22    1    1    2    0    0  0.11446819187E-06 -0.46094982323E-07  0.37925517661E-06  0.39882603142E-06  0.00000000000E+00 0. -1.
</event>
<event>
 5   0  0.2147244E+06  0.9118800E+02  0.7546771E-02  0.1180000E+00
      -11   -1    0    0    0    0  0.00000000000E+00  0.00000000000E+00  0.34996269501E-01  0.35000000000E-01  0.51099999109E-03 0. -1.
       11   -1    0    0    0    0 -0.00000000000E+00 -0.00000000000E+00 -0.34996269501E-01  0.35000000000E-01  0.51099999109E-03 0.  1.
       22    1    1    2    0    0  0.60713689256E-03  0.15373306827E-02  0.34960751789E-01  0.34999802378E-01  0.00000000000E+00 0. -1.
       22    1    1    2    0    0 -0.60719875868E-03 -0.15374493717E-02 -0.34960923346E-01  0.34999980030E-01  0.00000000000E+00 0.  1.
       22    1    1    2    0    0  0.61866119631E-07  0.11868898383E-06  0.17155681065E-06  0.21759189076E-06  0.00000000000E+00 0.  1.
</event>
<event>
 5   0  0.2147244E+06  0.9118800E+02  0.7546771E-02  0.1180000E+00
      -11   -1    0    0    0    0  0.00000000000E+00  0.00000000000E+00  0.34996269501E-01  0.35000000000E-01  0.51099999109E-03 0.  1.
       11   -1    0    0    0    0 -0.00000000000E+00 -0.00000000000E+00 -0.34996269501E-01  0.35000000000E-01  0.51099999109E-03 0. -1.
       22    1    1    2    0    0  0.31467043019E-01 -0.11139743145E-01  0.97136019507E-02  0.34765251855E-01  0.00000000000E+00 0.  1.
       22    1    1    2    0    0 -0.31422699039E-01  0.11477518090E-01 -0.93474577802E-02  0.34734628303E-01  0.00000000000E+00 0. -1.
       22    1    1    2    0    0 -0.44343979746E-04 -0.33777494487E-03 -0.36614417055E-03  0.50011984119E-03  0.00000000000E+00 0.  1.
</event>
<event>
 5   0  0.2147244E+06  0.9118800E+02  0.7546771E-02  0.1180000E+00
      -11   -1    0    0    0    0  0.00000000000E+00  0.00000000000E+00  0.34996269501E-01  0.35000000000E-01  0.51099999109E-03 0.  1.
       11   -1    0    0    0    0 -0.00000000000E+00 -0.00000000000E+00 -0.34996269501E-01  0.35000000000E-01  0.51099999109E-03 0. -1.
       22    1    1    2    0    0 -0.61656652246E-04  0.89317031192E-03 -0.34988492137E-01  0.34999944811E-01  0.00000000000E+00 0. -1.
       22    1    1    2    0    0  0.45328619863E-05 -0.15453472800E-06  0.12906066982E-03  0.12914033921E-03  0.00000000000E+00 0.  1.
       22    1    1    2    0    0  0.57123790260E-04 -0.89301577719E-03  0.34859431467E-01  0.34870914850E-01  0.00000000000E+00 0.  1.
</event>
<event>
 5   0  0.2147244E+06  0.9118800E+02  0.7546771E-02  0.1180000E+00
      -11   -1    0    0    0    0  0.00000000000E+00  0.00000000000E+00  0.34996269501E-01  0.35000000000E-01  0.51099999109E-03 0.  1.
       11   -1    0    0    0    0 -0.00000000000E+00 -0.00000000000E+00 -0.34996269501E-01  0.35000000000E-01  0.51099999109E-03 0. -1.
       22    1    1    2    0    0  0.44346870135E-04 -0.31633081729E-04  0.34196252807E-03  0.34627397730E-03  0.00000000000E+00 0.  1.
       22    1    1    2    0    0 -0.24349992069E-02  0.25350583791E-01 -0.23945444225E-01  0.34956624820E-01  0.00000000000E+00 0. -1.
       22    1    1    2    0    0  0.23906523367E-02 -0.25318950709E-01  0.23603481697E-01  0.34697101202E-01  0.00000000000E+00 0.  1.
</event>
<event>
 5   0  0.2147244E+06  0.9118800E+02  0.7546771E-02  0.1180000E+00
      -11   -1    0    0    0    0  0.00000000000E+00  0.00000000000E+00  0.34996269501E-01  0.35000000000E-01  0.51099999109E-03 0. -1.
       11   -1    0    0    0    0 -0.00000000000E+00 -0.00000000000E+00 -0.34996269501E-01  0.35000000000E-01  0.51099999109E-03 0.  1.
       22    1    1    2    0    0  0.11511862789E-02  0.18915794436E-03  0.34582356261E-01  0.34602028483E-01  0.00000000000E+00 0. -1.
       22    1    1    2    0    0 -0.11649888380E-02 -0.16297163273E-03 -0.34979726456E-01  0.34999500306E-01  0.00000000000E+00 0.  1.
       22    1    1    2    0    0  0.13802559146E-04 -0.26186311626E-04  0.39737019486E-03  0.39847121015E-03  0.00000000000E+00 0. -1.
</event>
<event>
 5   0  0.2147244E+06  0.9118800E+02  0.7546771E-02  0.1180000E+00
      -11   -1    0    0    0    0  0.00000000000E+00  0.00000000000E+00  0.34996269501E-01  0.35000000000E-01  0.51099999109E-03 0. -1.
       11   -1    0    0    0    0 -0.00000000000E+00 -0.00000000000E+00 -0.34996269501E-01  0.35000000000E-01  0.51099999109E-03 0.  1.
       22    1    1    2    0    0 -0.73277817244E-03  0.76800558814E-02  0.34124800203E-01  0.34986028798E-01  0.00000000000E+00 0. -1.
       22    1    1    2    0    0  0.73359754064E-03 -0.76805990450E-02 -0.34138859033E-01  0.34999878044E-01  0.00000000000E+00 0.  1.
       22    1    1    2    0    0 -0.81936819287E-06  0.54316359650E-06  0.14058829843E-04  0.14093157470E-04  0.00000000000E+00 0.  1.
</event>
<event>
 5   0  0.2147244E+06  0.9118800E+02  0.7546771E-02  0.1180000E+00
      -11   -1    0    0    0    0  0.00000000000E+00  0.00000000000E+00  0.34996269501E-01  0.35000000000E-01  0.51099999109E-03 0.  1.
       11   -1    0    0    0    0 -0.00000000000E+00 -0.00000000000E+00 -0.34996269501E-01  0.35000000000E-01  0.51099999109E-03 0. -1.
       22    1    1    2    0    0  0.15893972577E-01 -0.18171020946E-02 -0.31112642857E-01  0.34984521862E-01  0.00000000000E+00 0. -1.
       22    1    1    2    0    0 -0.15450013275E-01  0.17012858107E-02  0.29573685711E-01  0.33409582011E-01  0.00000000000E+00 0.  1.
       22    1    1    2    0    0 -0.44395930267E-03  0.11581628390E-03  0.15389571461E-02  0.16058961273E-02  0.00000000000E+00 0. -1.
</event>
<event>
 5   0  0.2147244E+06  0.9118800E+02  0.7546771E-02  0.1180000E+00
      -11   -1    0    0    0    0  0.00000000000E+00  0.00000000000E+00  0.34996269501E-01  0.35000000000E-01  0.51099999109E-03 0. -1.
       11   -1    0    0    0    0 -0.00000000000E+00 -0.00000000000E+00 -0.34996269501E-01  0.35000000000E-01  0.51099999109E-03 0.  1.
       22    1    1    2    0    0  0.85530475417E-02 -0.23852203299E-01 -0.24143689062E-01  0.34999999229E-01  0.00000000000E+00 0.  1.
       22    1    1    2    0    0 -0.85530488163E-02  0.23852203672E-01  0.24143688112E-01  0.34999999138E-01  0.00000000000E+00 0. -1.
       22    1    1    2    0    0  0.12745866491E-08 -0.37275168838E-09  0.95038492177E-09  0.16330175892E-08  0.00000000000E+00 0. -1.
</event>
<event>
 5   0  0.2147244E+06  0.9118800E+02  0.7546771E-02  0.1180000E+00
      -11   -1    0    0    0    0  0.00000000000E+00  0.00000000000E+00  0.34996269501E-01  0.35000000000E-01  0.51099999109E-03 0.  1.
       11   -1    0    0    0    0 -0.00000000000E+00 -0.00000000000E+00 -0.34996269501E-01  0.35000000000E-01  0.51099999109E-03 0. -1.
       22    1    1    2    0    0 -0.17232214752E-03 -0.64589153660E-03 -0.32124562478E-01  0.32131517007E-01  0.00000000000E+00 0. -1.
       22    1    1    2    0    0 -0.10606827242E-02  0.19065694805E-02  0.34688294410E-01  0.34756838522E-01  0.00000000000E+00 0.  1.
       22    1    1    2    0    0  0.12330048717E-02 -0.12606779439E-02 -0.25637319320E-02  0.31116444705E-02  0.00000000000E+00 0. -1.
</event>
<event>
 5   0  0.2147244E+06  0.9118800E+02  0.7546771E-02  0.1180000E+00
      -11   -1    0    0    0    0  0.00000000000E+00  0.00000000000E+00  0.34996269501E-01  0.35000000000E-01  0.51099999109E-03 0. -1.
       11   -1    0    0    0    0 -0.00000000000E+00 -0.00000000000E+00 -0.34996269501E-01  0.35000000000E-01  0.51099999109E-03 0.  1.
       22    1    1    2    0    0  0.43162964242E-02 -0.27840107003E-01 -0.20767684709E-01  0.34999981441E-01  0.00000000000E+00 0.  1.
       22    1    1    2    0    0  0.10538612184E-07 -0.13382342629E-08  0.83815005748E-07  0.84485551465E-07  0.00000000000E+00 0. -1.
       22    1    1    2    0    0 -0.43163069629E-02  0.27840108341E-01  0.20767600894E-01  0.34999934073E-01  0.00000000000E+00 0. -1.
</event>
<event>
 5   0  0.2147244E+06  0.9118800E+02  0.7546771E-02  0.1180000E+00
      -11   -1    0    0    0    0  0.00000000000E+00  0.00000000000E+00  0.34996269501E-01  0.35000000000E-01  0.51099999109E-03 0.  1.
       11   -1    0    0    0    0 -0.00000000000E+00 -0.00000000000E+00 -0.34996269501E-01  0.35000000000E-01  0.51099999109E-03 0. -1.
       22    1    1    2    0    0 -0.69605678119E-09  0.39548139982E-09  0.22623299306E-09  0.83191462746E-09  0.00000000000E+00 0.  1.
       22    1    1    2    0    0 -0.11146907100E-01 -0.16448029839E-02  0.33136702333E-01  0.34999999375E-01  0.00000000000E+00 0.  1.
       22    1    1    2    0    0  0.11146907796E-01  0.16448025884E-02 -0.33136702560E-01  0.34999999793E-01  0.00000000000E+00 0. -1.
</event>
<event>
 5   0  0.2147244E+06  0.9118800E+02  0.7546771E-02  0.1180000E+00
      -11   -1    0    0    0    0  0.00000000000E+00  0.00000000000E+00  0.34996269501E-01  0.35000000000E-01  0.51099999109E-03 0.  1.
       11   -1    0    0    0    0 -0.00000000000E+00 -0.00000000000E+00 -0.34996269501E-01  0.35000000000E-01  0.51099999109E-03 0.  1.
       22    1    1    2    0    0 -0.23918848314E-06  0.96405318901E-07  0.13310845348E-05  0.13558359616E-05  0.00000000000E+00 0.  1.
       22    1    1    2    0    0  0.68112169198E-05  0.49928256090E-03 -0.34996424860E-01  0.34999986892E-01  0.00000000000E+00 0.  1.
       22    1    1    2    0    0 -0.65720284367E-05 -0.49937896622E-03  0.34995093775E-01  0.34998657272E-01  0.00000000000E+00 0.  1.
</event>
<event>
 5   0  0.2147244E+06  0.9118800E+02  0.7546771E-02  0.1180000E+00
      -11   -1    0    0    0    0  0.00000000000E+00  0.00000000000E+00  0.34996269501E-01  0.35000000000E-01  0.51099999109E-03 0.  1.
       11   -1    0    0    0    0 -0.00000000000E+00 -0.00000000000E+00 -0.34996269501E-01  0.35000000000E-01  0.51099999109E-03 0. -1.
       22    1    1    2    0    0  0.10836258962E-01  0.35489578417E-02  0.33070451369E-01  0.34981057214E-01  0.00000000000E+00 0.  1.
       22    1    1    2    0    0 -0.10866625041E-01 -0.35612538207E-02 -0.33063899452E-01  0.34985532946E-01  0.00000000000E+00 0. -1.
       22    1    1    2    0    0  0.30366078359E-04  0.12295979009E-04 -0.65519167250E-05  0.33409840279E-04  0.00000000000E+00 0.  1.
</event>
<event>
 5   0  0.2147244E+06  0.9118800E+02  0.7546771E-02  0.1180000E+00
      -11   -1    0    0    0    0  0.00000000000E+00  0.00000000000E+00  0.34996269501E-01  0.35000000000E-01  0.51099999109E-03 0. -1.
       11   -1    0    0    0    0 -0.00000000000E+00 -0.00000000000E+00 -0.34996269501E-01  0.35000000000E-01  0.51099999109E-03 0.  1.
       22    1    1    2    0    0  0.24143195125E-07 -0.16782627222E-06  0.27939136449E-05  0.27990537699E-05  0.00000000000E+00 0.  1.
       22    1    1    2    0    0 -0.20299719385E-02  0.95147720884E-03  0.34925328466E-01  0.34997209366E-01  0.00000000000E+00 0. -1.
       22    1    1    2    0    0  0.20299477953E-02 -0.95130938257E-03 -0.34928122380E-01  0.34999991580E-01  0.00000000000E+00 0.  1.
</event>
<event>
 5   0  0.2147244E+06  0.9118800E+02  0.7546771E-02  0.1180000E+00
      -11   -1    0    0    0    0  0.00000000000E+00  0.00000000000E+00  0.34996269501E-01  0.35000000000E-01  0.51099999109E-03 0. -1.
       11   -1    0    0    0    0 -0.00000000000E+00 -0.00000000000E+00 -0.34996269501E-01  0.35000000000E-01  0.51099999109E-03 0.  1.
       22    1    1    2    0    0  0.28962880790E-01  0.12157826900E-01 -0.12941007629E-01  0.33972502072E-01  0.00000000000E+00 0.  1.
       22    1    1    2    0    0 -0.28905235720E-01 -0.12239011965E-01  0.97984522739E-02  0.32883365595E-01  0.00000000000E+00 0. -1.
       22    1    1    2    0    0 -0.57645069906E-04  0.81185064876E-04  0.31425553549E-02  0.31441323330E-02  0.00000000000E+00 0. -1.
</event>
<event>
 5   0  0.2147244E+06  0.9118800E+02  0.7546771E-02  0.1180000E+00
      -11   -1    0    0    0    0  0.00000000000E+00  0.00000000000E+00  0.34996269501E-01  0.35000000000E-01  0.51099999109E-03 0. -1.
       11   -1    0    0    0    0 -0.00000000000E+00 -0.00000000000E+00 -0.34996269501E-01  0.35000000000E-01  0.51099999109E-03 0.  1.
       22    1    1    2    0    0  0.36207128635E-04 -0.12728625655E-04  0.37946422077E-04  0.53971335202E-04  0.00000000000E+00 0.  1.
       22    1    1    2    0    0  0.13591869192E-01  0.53754791820E-02  0.31746618131E-01  0.34949713122E-01  0.00000000000E+00 0. -1.
       22    1    1    2    0    0 -0.13628076321E-01 -0.53627505563E-02 -0.31784564553E-01  0.34996315543E-01  0.00000000000E+00 0.  1.
</event>
<event>
 5   0  0.2147244E+06  0.9118800E+02  0.7546771E-02  0.1180000E+00
      -11   -1    0    0    0    0  0.00000000000E+00  0.00000000000E+00  0.34996269501E-01  0.35000000000E-01  0.51099999109E-03 0.  1.
       11   -1    0    0    0    0 -0.00000000000E+00 -0.00000000000E+00 -0.34996269501E-01  0.35000000000E-01  0.51099999109E-03 0. -1.
       22    1    1    2    0    0 -0.15445619778E-02  0.59836298730E-03  0.34959580150E-01  0.34998799325E-01  0.00000000000E+00 0.  1.
       22    1    1    2    0    0 -0.90909542746E-07 -0.94422943756E-08  0.11976790739E-05  0.12011614654E-05  0.00000000000E+00 0. -1.
       22    1    1    2    0    0  0.15446528873E-02 -0.59835354501E-03 -0.34960777829E-01  0.34999999513E-01  0.00000000000E+00 0. -1.
</event>
<event>
 5   0  0.2147244E+06  0.9118800E+02  0.7546771E-02  0.1180000E+00
      -11   -1    0    0    0    0  0.00000000000E+00  0.00000000000E+00  0.34996269501E-01  0.35000000000E-01  0.51099999109E-03 0.  1.
       11   -1    0    0    0    0 -0.00000000000E+00 -0.00000000000E+00 -0.34996269501E-01  0.35000000000E-01  0.51099999109E-03 0. -1.
       22    1    1    2    0    0 -0.20865032863E-01  0.19624465438E-01  0.17835377083E-01  0.33742701667E-01  0.00000000000E+00 0.  1.
       22    1    1    2    0    0  0.20238816417E-01 -0.19709115678E-01 -0.19599690782E-01  0.34383234425E-01  0.00000000000E+00 0. -1.
       22    1    1    2    0    0  0.62621644653E-03  0.84650240150E-04  0.17643136996E-02  0.18740639081E-02  0.00000000000E+00 0. -1.
</event>
<event>
 5   0  0.2147244E+06  0.9118800E+02  0.7546771E-02  0.1180000E+00
      -11   -1    0    0    0    0  0.00000000000E+00  0.00000000000E+00  0.34996269501E-01  0.35000000000E-01  0.51099999109E-03 0.  1.
       11   -1    0    0    0    0 -0.00000000000E+00 -0.00000000000E+00 -0.34996269501E-01  0.35000000000E-01  0.51099999109E-03 0. -1.
       22    1    1    2    0    0 -0.20834773211E-01 -0.27025945983E-01 -0.77612733150E-02  0.34996098275E-01  0.00000000000E+00 0. -1.
       22    1    1    2    0    0  0.20833896772E-01  0.27027536592E-01  0.77523916208E-02  0.34994836259E-01  0.00000000000E+00 0.  1.
       22    1    1    2    0    0  0.87643897129E-06 -0.15906089981E-05  0.88816942379E-05  0.90654660549E-05  0.00000000000E+00 0.  1.
</event>
<event>
 5   0  0.2147244E+06  0.9118800E+02  0.7546771E-02  0.1180000E+00
      -11   -1    0    0    0    0  0.00000000000E+00  0.00000000000E+00  0.34996269501E-01  0.35000000000E-01  0.51099999109E-03 0. -1.
       11   -1    0    0    0    0 -0.00000000000E+00 -0.00000000000E+00 -0.34996269501E-01  0.35000000000E-01  0.51099999109E-03 0.  1.
       22    1    1    2    0    0 -0.24350854773E-06  0.14422881459E-06  0.37338249956E-06  0.46852198961E-06  0.00000000000E+00 0.  1.
       22    1    1    2    0    0  0.49446731060E-03  0.81988769851E-03 -0.34986854011E-01  0.34999952391E-01  0.00000000000E+00 0.  1.
       22    1    1    2    0    0 -0.49422380206E-03 -0.82003192733E-03  0.34986480628E-01  0.34999579087E-01  0.00000000000E+00 0. -1.
</event>
<event>
 5   0  0.2147244E+06  0.9118800E+02  0.7546771E-02  0.1180000E+00
      -11   -1    0    0    0    0  0.00000000000E+00  0.00000000000E+00  0.34996269501E-01  0.35000000000E-01  0.51099999109E-03 0.  1.
       11   -1    0    0    0    0 -0.00000000000E+00 -0.00000000000E+00 -0.34996269501E-01  0.35000000000E-01  0.51099999109E-03 0. -1.
       22    1    1    2    0    0 -0.10811261970E-01  0.79509722709E-02  0.27627439550E-01  0.30714438974E-01  0.00000000000E+00 0.  1.
       22    1    1    2    0    0 -0.77051713795E-05  0.49281768389E-04  0.44760092986E-02  0.44762872231E-02  0.00000000000E+00 0. -1.
       22    1    1    2    0    0  0.10818967141E-01 -0.80002540393E-02 -0.32103448848E-01  0.34809273803E-01  0.00000000000E+00 0. -1.
</event>
<event>
 5   0  0.2147244E+06  0.9118800E+02  0.7546771E-02  0.1180000E+00
      -11   -1    0    0    0    0  0.00000000000E+00  0.00000000000E+00  0.34996269501E-01  0.35000000000E-01  0.51099999109E-03 0. -1.
       11   -1    0    0    0    0 -0.00000000000E+00 -0.00000000000E+00 -0.34996269501E-01  0.35000000000E-01  0.51099999109E-03 0.  1.
       22    1    1    2    0    0 -0.32588831284E-02 -0.18131979747E-02  0.34800311638E-01  0.34999567087E-01  0.00000000000E+00 0. -1.
       22    1    1    2    0    0  0.52939847991E-07 -0.35176290159E-07  0.43338224091E-06  0.43801845353E-06  0.00000000000E+00 0. -1.
       22    1    1    2    0    0  0.32588301886E-02  0.18132331510E-02 -0.34800745020E-01  0.34999994895E-01  0.00000000000E+00 0.  1.
</event>
<event>
 5   0  0.2147244E+06  0.9118800E+02  0.7546771E-02  0.1180000E+00
      -11   -1    0    0    0    0  0.00000000000E+00  0.00000000000E+00  0.34996269501E-01  0.35000000000E-01  0.51099999109E-03 0. -1.
       11   -1    0    0    0    0 -0.00000000000E+00 -0.00000000000E+00 -0.34996269501E-01  0.35000000000E-01  0.51099999109E-03 0.  1.
       22    1    1    2    0    0 -0.18939136188E-03  0.82756167735E-05 -0.24965001484E-04  0.19120885201E-03  0.00000000000E+00 0.  1.
       22    1    1    2    0    0  0.58888194004E-03 -0.12350864863E-03  0.34913047140E-01  0.34918231584E-01  0.00000000000E+00 0. -1.
       22    1    1    2    0    0 -0.39949057816E-03  0.11523303186E-03 -0.34888082139E-01  0.34890559564E-01  0.00000000000E+00 0.  1.
</event>
<event>
 5   0  0.2147244E+06  0.9118800E+02  0.7546771E-02  0.1180000E+00
      -11   -1    0    0    0    0  0.00000000000E+00  0.00000000000E+00  0.34996269501E-01  0.35000000000E-01  0.51099999109E-03 0. -1.
       11   -1    0    0    0    0 -0.00000000000E+00 -0.00000000000E+00 -0.34996269501E-01  0.35000000000E-01  0.51099999109E-03 0.  1.
       22    1    1    2    0    0  0.20364358726E-03  0.96635530323E-03  0.34947420453E-01  0.34961371678E-01  0.00000000000E+00 0. -1.
       22    1    1    2    0    0 -0.29835873204E-05  0.47862487191E-05  0.38372209177E-04  0.38784486682E-04  0.00000000000E+00 0. -1.
       22    1    1    2    0    0 -0.20065999994E-03 -0.97114155195E-03 -0.34985792662E-01  0.34999843836E-01  0.00000000000E+00 0.  1.
</event>
<event>
 5   0  0.2147244E+06  0.9118800E+02  0.7546771E-02  0.1180000E+00
      -11   -1    0    0    0    0  0.00000000000E+00  0.00000000000E+00  0.34996269501E-01  0.35000000000E-01  0.51099999109E-03 0.  1.
       11   -1    0    0    0    0 -0.00000000000E+00 -0.00000000000E+00 -0.34996269501E-01  0.35000000000E-01  0.51099999109E-03 0.  1.
       22    1    1    2    0    0 -0.57649709223E-03  0.11249081389E-02  0.34957731269E-01  0.34980576649E-01  0.00000000000E+00 0.  1.
       22    1    1    2    0    0 -0.85320272404E-04  0.10094656157E-03 -0.24192179092E-03  0.27567355713E-03  0.00000000000E+00 0.  1.
       22    1    1    2    0    0  0.66181736464E-03 -0.12258547004E-02 -0.34715809478E-01  0.34743749794E-01  0.00000000000E+00 0.  1.
</event>
<event>
 5   0  0.2147244E+06  0.9118800E+02  0.7546771E-02  0.1180000E+00
      -11   -1    0    0    0    0  0.00000000000E+00  0.00000000000E+00  0.34996269501E-01  0.35000000000E-01  0.51099999109E-03 0. -1.
       11   -1    0    0    0    0 -0.00000000000E+00 -0.00000000000E+00 -0.34996269501E-01  0.35000000000E-01  0.51099999109E-03 0.  1.
       22    1    1    2    0    0  0.28455110095E-02 -0.30604964994E-02  0.34740083158E-01  0.34990526569E-01  0.00000000000E+00 0. -1.
       22    1    1    2    0    0 -0.29026560633E-05  0.26819989379E-04 -0.62069997966E-05  0.27681475557E-04  0.00000000000E+00 0.  1.
       22    1    1    2    0    0 -0.28426083534E-02  0.30336765100E-02 -0.34733876159E-01  0.34981791955E-01  0.00000000000E+00 0.  1.
</event>
<event>
 5   0  0.2147244E+06  0.9118800E+02  0.7546771E-02  0.1180000E+00
      -11   -1    0    0    0    0  0.00000000000E+00  0.00000000000E+00  0.34996269501E-01  0.35000000000E-01  0.51099999109E-03 0. -1.
       11   -1    0    0    0    0 -0.00000000000E+00 -0.00000000000E+00 -0.34996269501E-01  0.35000000000E-01  0.51099999109E-03 0.  1.
       22    1    1    2    0    0  0.49687160233E-02  0.27129642353E-02 -0.18087419839E-01  0.18952653384E-01  0.00000000000E+00 0. -1.
       22    1    1    2    0    0  0.99701257355E-02  0.37550012686E-02  0.29368789650E-01  0.31241466791E-01  0.00000000000E+00 0. -1.
       22    1    1    2    0    0 -0.14938841759E-01 -0.64679655039E-02 -0.11281369812E-01  0.19805879826E-01  0.00000000000E+00 0.  1.
</event>
<event>
 5   0  0.2147244E+06  0.9118800E+02  0.7546771E-02  0.1180000E+00
      -11   -1    0    0    0    0  0.00000000000E+00  0.00000000000E+00  0.34996269501E-01  0.35000000000E-01  0.51099999109E-03 0. -1.
       11   -1    0    0    0    0 -0.00000000000E+00 -0.00000000000E+00 -0.34996269501E-01  0.35000000000E-01  0.51099999109E-03 0.  1.
       22    1    1    2    0    0 -0.34945141055E-04  0.85077319232E-05  0.12168643063E-03  0.12689023518E-03  0.00000000000E+00 0.  1.
       22    1    1    2    0    0  0.35010140162E-02  0.25145795793E-01  0.23937086731E-01  0.34893441595E-01  0.00000000000E+00 0. -1.
       22    1    1    2    0    0 -0.34660688752E-02 -0.25154303525E-01 -0.24058773161E-01  0.34979668170E-01  0.00000000000E+00 0.  1.
</event>
<event>
 5   0  0.2147244E+06  0.9118800E+02  0.7546771E-02  0.1180000E+00
      -11   -1    0    0    0    0  0.00000000000E+00  0.00000000000E+00  0.34996269501E-01  0.35000000000E-01  0.51099999109E-03 0.  1.
       11   -1    0    0    0    0 -0.00000000000E+00 -0.00000000000E+00 -0.34996269501E-01  0.35000000000E-01  0.51099999109E-03 0. -1.
       22    1    1    2    0    0 -0.17711017472E-02  0.47618314864E-03  0.32915403740E-01  0.32966458031E-01  0.00000000000E+00 0.  1.
       22    1    1    2    0    0 -0.14710246441E-02  0.70274174338E-02 -0.23463399890E-01  0.24537311256E-01  0.00000000000E+00 0. -1.
       22    1    1    2    0    0  0.32421263912E-02 -0.75036005824E-02 -0.94520038498E-02  0.12496230712E-01  0.00000000000E+00 0.  1.
</event>
<event>
 5   0  0.2147244E+06  0.9118800E+02  0.7546771E-02  0.1180000E+00
      -11   -1    0    0    0    0  0.00000000000E+00  0.00000000000E+00  0.34996269501E-01  0.35000000000E-01  0.51099999109E-03 0.  1.
       11   -1    0    0    0    0 -0.00000000000E+00 -0.00000000000E+00 -0.34996269501E-01  0.35000000000E-01  0.51099999109E-03 0. -1.
       22    1    1    2    0    0 -0.11614483410E-05  0.61841145002E-06  0.10267449812E-04  0.10351421188E-04  0.00000000000E+00 0. -1.
       22    1    1    2    0    0  0.11481236214E-01  0.18604165944E-01 -0.27331051284E-01  0.34998859121E-01  0.00000000000E+00 0. -1.
       22    1    1    2    0    0 -0.11480074766E-01 -0.18604784355E-01  0.27320783835E-01  0.34990789458E-01  0.00000000000E+00 0.  1.
</event>
<event>
 5   0  0.2147244E+06  0.9118800E+02  0.7546771E-02  0.1180000E+00
      -11   -1    0    0    0    0  0.00000000000E+00  0.00000000000E+00  0.34996269501E-01  0.35000000000E-01  0.51099999109E-03 0.  1.
       11   -1    0    0    0    0 -0.00000000000E+00 -0.00000000000E+00 -0.34996269501E-01  0.35000000000E-01  0.51099999109E-03 0. -1.
       22    1    1    2    0    0  0.90379143653E-03  0.16654632064E-01 -0.29659746642E-01  0.34027844172E-01  0.00000000000E+00 0. -1.
       22    1    1    2    0    0 -0.37460893506E-03 -0.73751055805E-03  0.12625722680E-01  0.12652791268E-01  0.00000000000E+00 0.  1.
       22    1    1    2    0    0 -0.52918250147E-03 -0.15917121505E-01  0.17034023962E-01  0.23319364560E-01  0.00000000000E+00 0.  1.
</event>
<event>
 5   0  0.2147244E+06  0.9118800E+02  0.7546771E-02  0.1180000E+00
      -11   -1    0    0    0    0  0.00000000000E+00  0.00000000000E+00  0.34996269501E-01  0.35000000000E-01  0.51099999109E-03 0. -1.
       11   -1    0    0    0    0 -0.00000000000E+00 -0.00000000000E+00 -0.34996269501E-01  0.35000000000E-01  0.51099999109E-03 0.  1.
       22    1    1    2    0    0  0.99264401926E-04 -0.92498983791E-05  0.33010107532E-02  0.33025158554E-02  0.00000000000E+00 0.  1.
       22    1    1    2    0    0 -0.17026818718E-02  0.49374538051E-02 -0.34590064592E-01  0.34982140359E-01  0.00000000000E+00 0.  1.
       22    1    1    2    0    0  0.16034174699E-02 -0.49282039068E-02  0.31289053839E-01  0.31715343786E-01  0.00000000000E+00 0. -1.
</event>
<event>
 5   0  0.2147244E+06  0.9118800E+02  0.7546771E-02  0.1180000E+00
      -11   -1    0    0    0    0  0.00000000000E+00  0.00000000000E+00  0.34996269501E-01  0.35000000000E-01  0.51099999109E-03 0. -1.
       11   -1    0    0    0    0 -0.00000000000E+00 -0.00000000000E+00 -0.34996269501E-01  0.35000000000E-01  0.51099999109E-03 0.  1.
       22    1    1    2    0    0  0.81445170985E-02 -0.21927365961E-01  0.23417004163E-01  0.33098317491E-01  0.00000000000E+00 0. -1.
       22    1    1    2    0    0 -0.82365436822E-02  0.21997681372E-01 -0.25584032594E-01  0.34731561459E-01  0.00000000000E+00 0.  1.
       22    1    1    2    0    0  0.92026583691E-04 -0.70315410997E-04  0.21670284313E-02  0.21701210499E-02  0.00000000000E+00 0. -1.
</event>
<event>
 5   0  0.2147244E+06  0.9118800E+02  0.7546771E-02  0.1180000E+00
      -11   -1    0    0    0    0  0.00000000000E+00  0.00000000000E+00  0.34996269501E-01  0.35000000000E-01  0.51099999109E-03 0.  1.
       11   -1    0    0    0    0 -0.00000000000E+00 -0.00000000000E+00 -0.34996269501E-01  0.35000000000E-01  0.51099999109E-03 0. -1.
       22    1    1    2    0    0 -0.41480696381E-03  0.16646903139E-02 -0.34957602086E-01  0.34999674316E-01  0.00000000000E+00 0. -1.
       22    1    1    2    0    0  0.41363994528E-03 -0.16635410839E-02  0.34956092968E-01  0.34998098556E-01  0.00000000000E+00 0.  1.
       22    1    1    2    0    0  0.11670185325E-05 -0.11492300225E-05  0.15091178443E-05  0.22271278741E-05  0.00000000000E+00 0. -1.
</event>
<event>
 5   0  0.2147244E+06  0.9118800E+02  0.7546771E-02  0.1180000E+00
      -11   -1    0    0    0    0  0.00000000000E+00  0.00000000000E+00  0.34996269501E-01  0.35000000000E-01  0.51099999109E-03 0.  1.
       11   -1    0    0    0    0 -0.00000000000E+00 -0.00000000000E+00 -0.34996269501E-01  0.35000000000E-01  0.51099999109E-03 0. -1.
       22    1    1    2    0    0 -0.13939284772E-06  0.46122282653E-06  0.60008381857E-06  0.76958264730E-06  0.00000000000E+00 0. -1.
       22    1    1    2    0    0 -0.24217804182E-01 -0.21606847687E-01  0.13100148347E-01  0.34999597041E-01  0.00000000000E+00 0.  1.
       22    1    1    2    0    0  0.24217943575E-01  0.21606386464E-01 -0.13100748431E-01  0.34999633376E-01  0.00000000000E+00 0. -1.
</event>
<event>
 5   0  0.2147244E+06  0.9118800E+02  0.7546771E-02  0.1180000E+00
      -11   -1    0    0    0    0  0.00000000000E+00  0.00000000000E+00  0.34996269501E-01  0.35000000000E-01  0.51099999109E-03 0. -1.
       11   -1    0    0    0    0 -0.00000000000E+00 -0.00000000000E+00 -0.34996269501E-01  0.35000000000E-01  0.51099999109E-03 0.  1.
       22    1    1    2    0    0 -0.40432671044E-03 -0.34543243362E-02  0.34825901285E-01  0.34999131946E-01  0.00000000000E+00 0. -1.
       22    1    1    2    0    0 -0.27668010763E-06 -0.28401838285E-06  0.80843886243E-06  0.90043973593E-06  0.00000000000E+00 0.  1.
       22    1    1    2    0    0  0.40460339055E-03  0.34546083546E-02 -0.34826709724E-01  0.34999967614E-01  0.00000000000E+00 0.  1.
</event>
<event>
 5   0  0.2147244E+06  0.9118800E+02  0.7546771E-02  0.1180000E+00
      -11   -1    0    0    0    0  0.00000000000E+00  0.00000000000E+00  0.34996269501E-01  0.35000000000E-01  0.51099999109E-03 0. -1.
       11   -1    0    0    0    0 -0.00000000000E+00 -0.00000000000E+00 -0.34996269501E-01  0.35000000000E-01  0.51099999109E-03 0. -1.
       22    1    1    2    0    0  0.23424055045E-02 -0.32864231533E-02  0.34653554968E-01  0.34887767378E-01  0.00000000000E+00 0. -1.
       22    1    1    2    0    0  0.21294427397E-03 -0.54041749487E-03 -0.10937342638E-02  0.12384066264E-02  0.00000000000E+00 0. -1.
       22    1    1    2    0    0 -0.25553497785E-02  0.38268406482E-02 -0.33559820705E-01  0.33873825995E-01  0.00000000000E+00 0. -1.
</event>
<event>
 5   0  0.2147244E+06  0.9118800E+02  0.7546771E-02  0.1180000E+00
      -11   -1    0    0    0    0  0.00000000000E+00  0.00000000000E+00  0.34996269501E-01  0.35000000000E-01  0.51099999109E-03 0. -1.
       11   -1    0    0    0    0 -0.00000000000E+00 -0.00000000000E+00 -0.34996269501E-01  0.35000000000E-01  0.51099999109E-03 0.  1.
       22    1    1    2    0    0  0.10035234399E-02  0.21347430973E-02  0.34912218223E-01  0.34991815738E-01  0.00000000000E+00 0. -1.
       22    1    1    2    0    0 -0.95237704749E-06 -0.15301724921E-06  0.81835549112E-05  0.82402067513E-05  0.00000000000E+00 0.  1.
       22    1    1    2    0    0 -0.10025710628E-02 -0.21345900801E-02 -0.34920401778E-01  0.34999944055E-01  0.00000000000E+00 0.  1.
</event>
<event>
 5   0  0.2147244E+06  0.9118800E+02  0.7546771E-02  0.1180000E+00
      -11   -1    0    0    0    0  0.00000000000E+00  0.00000000000E+00  0.34996269501E-01  0.35000000000E-01  0.51099999109E-03 0. -1.
       11   -1    0    0    0    0 -0.00000000000E+00 -0.00000000000E+00 -0.34996269501E-01  0.35000000000E-01  0.51099999109E-03 0.  1.
       22    1    1    2    0    0 -0.57748982185E-02  0.38886812226E-02 -0.34285356143E-01  0.34985095926E-01  0.00000000000E+00 0.  1.
       22    1    1    2    0    0  0.57600429809E-02 -0.38733304676E-02  0.34295761881E-01  0.34991142695E-01  0.00000000000E+00 0. -1.
       22    1    1    2    0    0  0.14855237613E-04 -0.15350754955E-04 -0.10405738503E-04  0.23761379506E-04  0.00000000000E+00 0.  1.
</event>
<event>
 5   0  0.2147244E+06  0.9118800E+02  0.7546771E-02  0.1180000E+00
      -11   -1    0    0    0    0  0.00000000000E+00  0.00000000000E+00  0.34996269501E-01  0.35000000000E-01  0.51099999109E-03 0.  1.
       11   -1    0    0    0    0 -0.00000000000E+00 -0.00000000000E+00 -0.34996269501E-01  0.35000000000E-01  0.51099999109E-03 0. -1.
       22    1    1    2    0    0 -0.10587656178E-04 -0.35083969365E-05  0.93337139110E-04  0.94001217277E-04  0.00000000000E+00 0. -1.
       22    1    1    2    0    0 -0.16255772096E-02 -0.30732545408E-04  0.34868247414E-01  0.34906133035E-01  0.00000000000E+00 0.  1.
       22    1    1    2    0    0  0.16361648657E-02  0.34240942344E-04 -0.34961584553E-01  0.34999865748E-01  0.00000000000E+00 0. -1.
</event>
<event>
 5   0  0.2147244E+06  0.9118800E+02  0.7546771E-02  0.1180000E+00
      -11   -1    0    0    0    0  0.00000000000E+00  0.00000000000E+00  0.34996269501E-01  0.35000000000E-01  0.51099999109E-03 0.  1.
       11   -1    0    0    0    0 -0.00000000000E+00 -0.00000000000E+00 -0.34996269501E-01  0.35000000000E-01  0.51099999109E-03 0. -1.
       22    1    1    2    0    0 -0.53469367945E-02 -0.70507657200E-02 -0.33855743325E-01  0.34993061975E-01  0.00000000000E+00 0. -1.
       22    1    1    2    0    0 -0.26542614219E-05  0.50421650711E-04  0.46663207537E-04  0.68752039255E-04  0.00000000000E+00 0.  1.
       22    1    1    2    0    0  0.53495910559E-02  0.70003440693E-02  0.33809080118E-01  0.34938185985E-01  0.00000000000E+00 0.  1.
</event>
<event>
 5   0  0.2147244E+06  0.9118800E+02  0.7546771E-02  0.1180000E+00
      -11   -1    0    0    0    0  0.00000000000E+00  0.00000000000E+00  0.34996269501E-01  0.35000000000E-01  0.51099999109E-03 0. -1.
       11   -1    0    0    0    0 -0.00000000000E+00 -0.00000000000E+00 -0.34996269501E-01  0.35000000000E-01  0.51099999109E-03 0.  1.
       22    1    1    2    0    0  0.13066761001E-05  0.14727256670E-05  0.21470761793E-05  0.29131185079E-05  0.00000000000E+00 0.  1.
       22    1    1    2    0    0 -0.11437723066E-03  0.69941859828E-03  0.34990280993E-01  0.34997457515E-01  0.00000000000E+00 0. -1.
       22    1    1    2    0    0  0.11307055456E-03 -0.70089132395E-03 -0.34992428069E-01  0.34999629367E-01  0.00000000000E+00 0.  1.
</event>
<event>
 5   0  0.2147244E+06  0.9118800E+02  0.7546771E-02  0.1180000E+00
      -11   -1    0    0    0    0  0.00000000000E+00  0.00000000000E+00  0.34996269501E-01  0.35000000000E-01  0.51099999109E-03 0.  1.
       11   -1    0    0    0    0 -0.00000000000E+00 -0.00000000000E+00 -0.34996269501E-01  0.35000000000E-01  0.51099999109E-03 0. -1.
       22    1    1    2    0    0 -0.16923269368E-03  0.95869959761E-02 -0.33632150387E-01  0.34972284329E-01  0.00000000000E+00 0. -1.
       22    1    1    2    0    0  0.14993860397E-04  0.86465029398E-04  0.13178976138E-03  0.15833369307E-03  0.00000000000E+00 0.  1.
       22    1    1    2    0    0  0.15423883328E-03 -0.96734610055E-02  0.33500360626E-01  0.34869381978E-01  0.00000000000E+00 0.  1.
</event>
<event>
 5   0  0.2147244E+06  0.9118800E+02  0.7546771E-02  0.1180000E+00
      -11   -1    0    0    0    0  0.00000000000E+00  0.00000000000E+00  0.34996269501E-01  0.35000000000E-01  0.51099999109E-03 0.  1.
       11   -1    0    0    0    0 -0.00000000000E+00 -0.00000000000E+00 -0.34996269501E-01  0.35000000000E-01  0.51099999109E-03 0.  1.
       22    1    1    2    0    0  0.21495120044E-03  0.10269020341E-02 -0.37647427830E-03  0.11146590010E-02  0.00000000000E+00 0. -1.
       22    1    1    2    0    0 -0.18294943676E-03 -0.15040162351E-03  0.34624888151E-01  0.34625698125E-01  0.00000000000E+00 0.  1.
       22    1    1    2    0    0 -0.32001763688E-04 -0.87650041062E-03 -0.34248413873E-01  0.34259642874E-01  0.00000000000E+00 0.  1.
</event>
<event>
 5   0  0.2147244E+06  0.9118800E+02  0.7546771E-02  0.1180000E+00
      -11   -1    0    0    0    0  0.00000000000E+00  0.00000000000E+00  0.34996269501E-01  0.35000000000E-01  0.51099999109E-03 0.  1.
       11   -1    0    0    0    0 -0.00000000000E+00 -0.00000000000E+00 -0.34996269501E-01  0.35000000000E-01  0.51099999109E-03 0. -1.
       22    1    1    2    0    0  0.26705306081E-04  0.57089881456E-03  0.16502008413E-02  0.17463680730E-02  0.00000000000E+00 0.  1.
       22    1    1    2    0    0 -0.98344747862E-02 -0.32072291782E-01 -0.83897675630E-02  0.34579430219E-01  0.00000000000E+00 0. -1.
       22    1    1    2    0    0  0.98077694801E-02  0.31501392968E-01  0.67395667217E-02  0.33674201708E-01  0.00000000000E+00 0.  1.
</event>
<event>
 5   0  0.2147244E+06  0.9118800E+02  0.7546771E-02  0.1180000E+00
      -11   -1    0    0    0    0  0.00000000000E+00  0.00000000000E+00  0.34996269501E-01  0.35000000000E-01  0.51099999109E-03 0.  1.
       11   -1    0    0    0    0 -0.00000000000E+00 -0.00000000000E+00 -0.34996269501E-01  0.35000000000E-01  0.51099999109E-03 0. -1.
       22    1    1    2    0    0  0.85803636277E-02  0.20242698488E-02 -0.32794759237E-01  0.33959042121E-01  0.00000000000E+00 0. -1.
       22    1    1    2    0    0 -0.85411967140E-02 -0.19945322497E-02  0.33858485603E-01  0.34976095373E-01  0.00000000000E+00 0.  1.
       22    1    1    2    0    0 -0.39166913731E-04 -0.29737599097E-04 -0.10637263668E-02  0.10648625054E-02  0.00000000000E+00 0.  1.
</event>
<event>
 5   0  0.2147244E+06  0.9118800E+02  0.7546771E-02  0.1180000E+00
      -11   -1    0    0    0    0  0.00000000000E+00  0.00000000000E+00  0.34996269501E-01  0.35000000000E-01  0.51099999109E-03 0.  1.
       11   -1    0    0    0    0 -0.00000000000E+00 -0.00000000000E+00 -0.34996269501E-01  0.35000000000E-01  0.51099999109E-03 0.  1.
       22    1    1    2    0    0 -0.19220030872E-03 -0.34556255296E-03 -0.34997547963E-01  0.34999781683E-01  0.00000000000E+00 0.  1.
       22    1    1    2    0    0  0.23612155843E-05 -0.45411809280E-05  0.32359255048E-04  0.32761548354E-04  0.00000000000E+00 0.  1.
       22    1    1    2    0    0  0.18983909313E-03  0.35010373388E-03  0.34965188708E-01  0.34967456769E-01  0.00000000000E+00 0.  1.
</event>
<event>
 5   0  0.2147244E+06  0.9118800E+02  0.7546771E-02  0.1180000E+00
      -11   -1    0    0    0    0  0.00000000000E+00  0.00000000000E+00  0.34996269501E-01  0.35000000000E-01  0.51099999109E-03 0.  1.
       11   -1    0    0    0    0 -0.00000000000E+00 -0.00000000000E+00 -0.34996269501E-01  0.35000000000E-01  0.51099999109E-03 0. -1.
       22    1    1    2    0    0  0.11502880304E-02 -0.28691219250E-02  0.16347584758E-02  0.34967782955E-02  0.00000000000E+00 0. -1.
       22    1    1    2    0    0 -0.10010210727E-03 -0.47620731372E-03 -0.33972480643E-01  0.33975965547E-01  0.00000000000E+00 0. -1.
       22    1    1    2    0    0 -0.10501859232E-02  0.33453292388E-02  0.32337722167E-01  0.32527256157E-01  0.00000000000E+00 0.  1.
</event>
<event>
 5   0  0.2147244E+06  0.9118800E+02  0.7546771E-02  0.1180000E+00
      -11   -1    0    0    0    0  0.00000000000E+00  0.00000000000E+00  0.34996269501E-01  0.35000000000E-01  0.51099999109E-03 0. -1.
       11   -1    0    0    0    0 -0.00000000000E+00 -0.00000000000E+00 -0.34996269501E-01  0.35000000000E-01  0.51099999109E-03 0.  1.
       22    1    1    2    0    0 -0.20527950157E-02 -0.20511440187E-02 -0.34879489847E-01  0.34999999588E-01  0.00000000000E+00 0.  1.
       22    1    1    2    0    0 -0.16120666856E-09 -0.34156550679E-08  0.97716951745E-08  0.10352715282E-07  0.00000000000E+00 0.  1.
       22    1    1    2    0    0  0.20527951769E-02  0.20511474344E-02  0.34879480075E-01  0.34999990059E-01  0.00000000000E+00 0. -1.
</event>
<event>
 5   0  0.2147244E+06  0.9118800E+02  0.7546771E-02  0.1180000E+00
      -11   -1    0    0    0    0  0.00000000000E+00  0.00000000000E+00  0.34996269501E-01  0.35000000000E-01  0.51099999109E-03 0.  1.
       11   -1    0    0    0    0 -0.00000000000E+00 -0.00000000000E+00 -0.34996269501E-01  0.35000000000E-01  0.51099999109E-03 0. -1.
       22    1    1    2    0    0 -0.19448991158E-02 -0.71531967210E-02  0.34196200143E-01  0.34990440982E-01  0.00000000000E+00 0.  1.
       22    1    1    2    0    0  0.18632729235E-02  0.71119829019E-02 -0.34066887450E-01  0.34851182294E-01  0.00000000000E+00 0. -1.
       22    1    1    2    0    0  0.81626192270E-04  0.41213819100E-04 -0.12931269314E-03  0.15837672417E-03  0.00000000000E+00 0. -1.
</event>
<event>
 5   0  0.2147244E+06  0.9118800E+02  0.7546771E-02  0.1180000E+00
      -11   -1    0    0    0    0  0.00000000000E+00  0.00000000000E+00  0.34996269501E-01  0.35000000000E-01  0.51099999109E-03 0. -1.
       11   -1    0    0    0    0 -0.00000000000E+00 -0.00000000000E+00 -0.34996269501E-01  0.35000000000E-01  0.51099999109E-03 0. -1.
       22    1    1    2    0    0  0.51241808248E-05 -0.21375897684E-05  0.24629477930E-04  0.25247528637E-04  0.00000000000E+00 0.  1.
       22    1    1    2    0    0  0.39914558567E-09 -0.16650652060E-09 -0.35001409043E-01  0.34999691359E-01  0.00000000000E+00 0. -1.
       22    1    1    2    0    0 -0.51245799704E-05  0.21377562749E-05  0.34976779565E-01  0.34975061112E-01  0.00000000000E+00 0. -1.
</event>
<event>
 5   0  0.2147244E+06  0.9118800E+02  0.7546771E-02  0.1180000E+00
      -11   -1    0    0    0    0  0.00000000000E+00  0.00000000000E+00  0.34996269501E-01  0.35000000000E-01  0.51099999109E-03 0.  1.
       11   -1    0    0    0    0 -0.00000000000E+00 -0.00000000000E+00 -0.34996269501E-01  0.35000000000E-01  0.51099999109E-03 0. -1.
       22    1    1    2    0    0  0.33066879761E-05  0.10815565991E-04  0.17540912537E-03  0.17577335383E-03  0.00000000000E+00 0. -1.
       22    1    1    2    0    0  0.12322755112E-01 -0.32633020689E-01 -0.16355529869E-02  0.34920472025E-01  0.00000000000E+00 0. -1.
       22    1    1    2    0    0 -0.12326061800E-01  0.32622205123E-01  0.14601438615E-02  0.34903754622E-01  0.00000000000E+00 0.  1.
</event>
<event>
 5   0  0.2147244E+06  0.9118800E+02  0.7546771E-02  0.1180000E+00
      -11   -1    0    0    0    0  0.00000000000E+00  0.00000000000E+00  0.34996269501E-01  0.35000000000E-01  0.51099999109E-03 0. -1.
       11   -1    0    0    0    0 -0.00000000000E+00 -0.00000000000E+00 -0.34996269501E-01  0.35000000000E-01  0.51099999109E-03 0.  1.
       22    1    1    2    0    0 -0.80161897548E-03  0.12511857142E-02  0.38535285012E-02  0.41301017642E-02  0.00000000000E+00 0. -1.
       22    1    1    2    0    0 -0.26721744170E-02 -0.25814099209E-02  0.30796986978E-01  0.31020293361E-01  0.00000000000E+00 0. -1.
       22    1    1    2    0    0  0.34737933925E-02  0.13302242067E-02 -0.34650515479E-01  0.34849604875E-01  0.00000000000E+00 0.  1.
</event>
<event>
 5   0  0.2147244E+06  0.9118800E+02  0.7546771E-02  0.1180000E+00
      -11   -1    0    0    0    0  0.00000000000E+00  0.00000000000E+00  0.34996269501E-01  0.35000000000E-01  0.51099999109E-03 0. -1.
       11   -1    0    0    0    0 -0.00000000000E+00 -0.00000000000E+00 -0.34996269501E-01  0.35000000000E-01  0.51099999109E-03 0.  1.
       22    1    1    2    0    0  0.23315205452E-02 -0.36241967565E-02  0.17395939043E-01  0.17921760108E-01  0.00000000000E+00 0. -1.
       22    1    1    2    0    0 -0.70203333900E-02 -0.11872356457E-01  0.12154000875E-01  0.18383624943E-01  0.00000000000E+00 0. -1.
       22    1    1    2    0    0  0.46888128449E-02  0.15496553214E-01 -0.29549939918E-01  0.33694614949E-01  0.00000000000E+00 0.  1.
</event>
<event>
 5   0  0.2147244E+06  0.9118800E+02  0.7546771E-02  0.1180000E+00
      -11   -1    0    0    0    0  0.00000000000E+00  0.00000000000E+00  0.34996269501E-01  0.35000000000E-01  0.51099999109E-03 0. -1.
       11   -1    0    0    0    0 -0.00000000000E+00 -0.00000000000E+00 -0.34996269501E-01  0.35000000000E-01  0.51099999109E-03 0.  1.
       22    1    1    2    0    0 -0.10815828945E-08 -0.19346578280E-08  0.22713466969E-08  0.31736002090E-08  0.00000000000E+00 0. -1.
       22    1    1    2    0    0 -0.14153258000E-02  0.88732506225E-02 -0.33826945734E-01  0.34999999734E-01  0.00000000000E+00 0.  1.
       22    1    1    2    0    0  0.14153268816E-02 -0.88732486878E-02  0.33826943462E-01  0.34999997092E-01  0.00000000000E+00 0. -1.
</event>
<event>
 5   0  0.2147244E+06  0.9118800E+02  0.7546771E-02  0.1180000E+00
      -11   -1    0    0    0    0  0.00000000000E+00  0.00000000000E+00  0.34996269501E-01  0.35000000000E-01  0.51099999109E-03 0.  1.
       11   -1    0    0    0    0 -0.00000000000E+00 -0.00000000000E+00 -0.34996269501E-01  0.35000000000E-01  0.51099999109E-03 0. -1.
       22    1    1    2    0    0  0.81241607810E-02  0.12212741431E-01  0.31772931379E-01  0.34995316973E-01  0.00000000000E+00 0.  1.
       22    1    1    2    0    0 -0.21118248191E-07 -0.55059670071E-07  0.49214619245E-05  0.49218152162E-05  0.00000000000E+00 0. -1.
       22    1    1    2    0    0 -0.81241396628E-02 -0.12212686371E-01 -0.31777852841E-01  0.34999761211E-01  0.00000000000E+00 0. -1.
</event>
<event>
 5   0  0.2147244E+06  0.9118800E+02  0.7546771E-02  0.1180000E+00
      -11   -1    0    0    0    0  0.00000000000E+00  0.00000000000E+00  0.34996269501E-01  0.35000000000E-01  0.51099999109E-03 0.  1.
       11   -1    0    0    0    0 -0.00000000000E+00 -0.00000000000E+00 -0.34996269501E-01  0.35000000000E-01  0.51099999109E-03 0. -1.
       22    1    1    2    0    0  0.28884125721E-03  0.86889795519E-03 -0.34981950777E-01  0.34993932233E-01  0.00000000000E+00 0. -1.
       22    1    1    2    0    0 -0.35484180727E-03 -0.47115484341E-03  0.30580924313E-01  0.30586611964E-01  0.00000000000E+00 0.  1.
       22    1    1    2    0    0  0.66000550060E-04 -0.39774311178E-03  0.44010264648E-02  0.44194558035E-02  0.00000000000E+00 0. -1.
</event>
<event>
 5   0  0.2147244E+06  0.9118800E+02  0.7546771E-02  0.1180000E+00
      -11   -1    0    0    0    0  0.00000000000E+00  0.00000000000E+00  0.34996269501E-01  0.35000000000E-01  0.51099999109E-03 0.  1.
       11   -1    0    0    0    0 -0.00000000000E+00 -0.00000000000E+00 -0.34996269501E-01  0.35000000000E-01  0.51099999109E-03 0. -1.
       22    1    1    2    0    0  0.12704993686E-07  0.27359465417E-07  0.13459626039E-06  0.13793516782E-06  0.00000000000E+00 0. -1.
       22    1    1    2    0    0 -0.12008848340E-01  0.77747549845E-02 -0.31942763781E-01  0.34999991593E-01  0.00000000000E+00 0. -1.
       22    1    1    2    0    0  0.12008835635E-01 -0.77747823439E-02  0.31942629185E-01  0.34999870472E-01  0.00000000000E+00 0.  1.
</event>
<event>
 5   0  0.2147244E+06  0.9118800E+02  0.7546771E-02  0.1180000E+00
      -11   -1    0    0    0    0  0.00000000000E+00  0.00000000000E+00  0.34996269501E-01  0.35000000000E-01  0.51099999109E-03 0.  1.
       11   -1    0    0    0    0 -0.00000000000E+00 -0.00000000000E+00 -0.34996269501E-01  0.35000000000E-01  0.51099999109E-03 0. -1.
       22    1    1    2    0    0 -0.57659705299E-06  0.11237651712E-05  0.27522422418E-05  0.30282255000E-05  0.00000000000E+00 0. -1.
       22    1    1    2    0    0  0.13966128159E-02 -0.66803566762E-03  0.34962873771E-01  0.34997133330E-01  0.00000000000E+00 0.  1.
       22    1    1    2    0    0 -0.13960362188E-02  0.66691190245E-03 -0.34965626013E-01  0.34999838444E-01  0.00000000000E+00 0. -1.
</event>
<event>
 5   0  0.2147244E+06  0.9118800E+02  0.7546771E-02  0.1180000E+00
      -11   -1    0    0    0    0  0.00000000000E+00  0.00000000000E+00  0.34996269501E-01  0.35000000000E-01  0.51099999109E-03 0.  1.
       11   -1    0    0    0    0 -0.00000000000E+00 -0.00000000000E+00 -0.34996269501E-01  0.35000000000E-01  0.51099999109E-03 0. -1.
       22    1    1    2    0    0  0.13654564418E-02  0.18155695627E-02  0.34901663673E-01  0.34975518456E-01  0.00000000000E+00 0.  1.
       22    1    1    2    0    0  0.39565306668E-04  0.62413315820E-04 -0.40034581683E-04  0.84045245041E-04  0.00000000000E+00 0.  1.
       22    1    1    2    0    0 -0.14050217485E-02 -0.18779828785E-02 -0.34861629092E-01  0.34940436299E-01  0.00000000000E+00 0. -1.
</event>
<event>
 5   0  0.2147244E+06  0.9118800E+02  0.7546771E-02  0.1180000E+00
      -11   -1    0    0    0    0  0.00000000000E+00  0.00000000000E+00  0.34996269501E-01  0.35000000000E-01  0.51099999109E-03 0.  1.
       11   -1    0    0    0    0 -0.00000000000E+00 -0.00000000000E+00 -0.34996269501E-01  0.35000000000E-01  0.51099999109E-03 0. -1.
       22    1    1    2    0    0  0.29014216776E-02  0.17695663055E-01 -0.29682897139E-01  0.34678943485E-01  0.00000000000E+00 0. -1.
       22    1    1    2    0    0 -0.33128163687E-02 -0.16970936043E-01  0.24015758412E-01  0.29592973399E-01  0.00000000000E+00 0.  1.
       22    1    1    2    0    0  0.41139469110E-03 -0.72472701192E-03  0.56671387268E-02  0.57280831159E-02  0.00000000000E+00 0.  1.
</event>
<event>
 5   0  0.2147244E+06  0.9118800E+02  0.7546771E-02  0.1180000E+00
      -11   -1    0    0    0    0  0.00000000000E+00  0.00000000000E+00  0.34996269501E-01  0.35000000000E-01  0.51099999109E-03 0.  1.
       11   -1    0    0    0    0 -0.00000000000E+00 -0.00000000000E+00 -0.34996269501E-01  0.35000000000E-01  0.51099999109E-03 0. -1.
       22    1    1    2    0    0  0.96595964462E-02  0.16635346282E-01  0.20227677902E-01  0.27914181033E-01  0.00000000000E+00 0.  1.
       22    1    1    2    0    0 -0.97813852180E-02 -0.17439081983E-01  0.17700092926E-02  0.20073116601E-01  0.00000000000E+00 0. -1.
       22    1    1    2    0    0  0.12178877179E-03  0.80373570076E-03 -0.21997687194E-01  0.22012702366E-01  0.00000000000E+00 0. -1.
</event>
<event>
 5   0  0.2147244E+06  0.9118800E+02  0.7546771E-02  0.1180000E+00
      -11   -1    0    0    0    0  0.00000000000E+00  0.00000000000E+00  0.34996269501E-01  0.35000000000E-01  0.51099999109E-03 0.  1.
       11   -1    0    0    0    0 -0.00000000000E+00 -0.00000000000E+00 -0.34996269501E-01  0.35000000000E-01  0.51099999109E-03 0. -1.
       22    1    1    2    0    0 -0.96523190737E-07 -0.85460288030E-06  0.35575326539E-04  0.35585720748E-04  0.00000000000E+00 0. -1.
       22    1    1    2    0    0  0.75851916267E-02  0.18698539605E-01  0.28558441977E-01  0.34967915630E-01  0.00000000000E+00 0.  1.
       22    1    1    2    0    0 -0.75850951036E-02 -0.18697685002E-01 -0.28594017303E-01  0.34996498649E-01  0.00000000000E+00 0. -1.
</event>
<event>
 5   0  0.2147244E+06  0.9118800E+02  0.7546771E-02  0.1180000E+00
      -11   -1    0    0    0    0  0.00000000000E+00  0.00000000000E+00  0.34996269501E-01  0.35000000000E-01  0.51099999109E-03 0.  1.
       11   -1    0    0    0    0 -0.00000000000E+00 -0.00000000000E+00 -0.34996269501E-01  0.35000000000E-01  0.51099999109E-03 0. -1.
       22    1    1    2    0    0 -0.15031196229E-02 -0.21724283252E-02 -0.34898937162E-01  0.34998780386E-01  0.00000000000E+00 0. -1.
       22    1    1    2    0    0  0.13014508351E-04 -0.34685289622E-05  0.91847494019E-03  0.91857368995E-03  0.00000000000E+00 0. -1.
       22    1    1    2    0    0  0.14901051145E-02  0.21758968541E-02  0.33980462222E-01  0.34082645924E-01  0.00000000000E+00 0.  1.
</event>
<event>
 5   0  0.2147244E+06  0.9118800E+02  0.7546771E-02  0.1180000E+00
      -11   -1    0    0    0    0  0.00000000000E+00  0.00000000000E+00  0.34996269501E-01  0.35000000000E-01  0.51099999109E-03 0. -1.
       11   -1    0    0    0    0 -0.00000000000E+00 -0.00000000000E+00 -0.34996269501E-01  0.35000000000E-01  0.51099999109E-03 0.  1.
       22    1    1    2    0    0 -0.46651345269E-02 -0.10832591536E-02 -0.34670777581E-01  0.34999996408E-01  0.00000000000E+00 0.  1.
       22    1    1    2    0    0 -0.13041658417E-07 -0.17399612885E-07  0.46791567339E-06  0.46842065368E-06  0.00000000000E+00 0.  1.
       22    1    1    2    0    0  0.46651475685E-02  0.10832765532E-02  0.34670309665E-01  0.34999535171E-01  0.00000000000E+00 0. -1.
</event>
<event>
 5   0  0.2147244E+06  0.9118800E+02  0.7546771E-02  0.1180000E+00
      -11   -1    0    0    0    0  0.00000000000E+00  0.00000000000E+00  0.34996269501E-01  0.35000000000E-01  0.51099999109E-03 0. -1.
       11   -1    0    0    0    0 -0.00000000000E+00 -0.00000000000E+00 -0.34996269501E-01  0.35000000000E-01  0.51099999109E-03 0.  1.
       22    1    1    2    0    0 -0.67849688711E-02  0.67972702762E-02  0.33469904485E-01  0.34820585750E-01  0.00000000000E+00 0. -1.
       22    1    1    2    0    0  0.31863219456E-02 -0.52212401150E-02 -0.13419883478E-01  0.14748127625E-01  0.00000000000E+00 0.  1.
       22    1    1    2    0    0  0.35986469255E-02 -0.15760301612E-02 -0.20050021007E-01  0.20431286625E-01  0.00000000000E+00 0.  1.
</event>
<event>
 5   0  0.2147244E+06  0.9118800E+02  0.7546771E-02  0.1180000E+00
      -11   -1    0    0    0    0  0.00000000000E+00  0.00000000000E+00  0.34996269501E-01  0.35000000000E-01  0.51099999109E-03 0.  1.
       11   -1    0    0    0    0 -0.00000000000E+00 -0.00000000000E+00 -0.34996269501E-01  0.35000000000E-01  0.51099999109E-03 0. -1.
       22    1    1    2    0    0  0.10191073071E-06 -0.10650395066E-06  0.23257318619E-06  0.27535281999E-06  0.00000000000E+00 0. -1.
       22    1    1    2    0    0  0.11075780312E-02  0.57162993226E-03 -0.34977778027E-01  0.34999977794E-01  0.00000000000E+00 0. -1.
       22    1    1    2    0    0 -0.11076799419E-02 -0.57152342831E-03  0.34977545453E-01  0.34999746854E-01  0.00000000000E+00 0.  1.
</event>
<event>
 5   0  0.2147244E+06  0.9118800E+02  0.7546771E-02  0.1180000E+00
      -11   -1    0    0    0    0  0.00000000000E+00  0.00000000000E+00  0.34996269501E-01  0.35000000000E-01  0.51099999109E-03 0.  1.
       11   -1    0    0    0    0 -0.00000000000E+00 -0.00000000000E+00 -0.34996269501E-01  0.35000000000E-01  0.51099999109E-03 0. -1.
       22    1    1    2    0    0 -0.14278794615E-02  0.61224703892E-03  0.34946016156E-01  0.34980533606E-01  0.00000000000E+00 0.  1.
       22    1    1    2    0    0  0.17110093074E-02 -0.77642537831E-03 -0.32046964109E-01  0.32101998346E-01  0.00000000000E+00 0. -1.
       22    1    1    2    0    0 -0.28312984593E-03  0.16417833939E-03 -0.28990520470E-02  0.29174680474E-02  0.00000000000E+00 0.  1.
</event>
<event>
 5   0  0.2147244E+06  0.9118800E+02  0.7546771E-02  0.1180000E+00
      -11   -1    0    0    0    0  0.00000000000E+00  0.00000000000E+00  0.34996269501E-01  0.35000000000E-01  0.51099999109E-03 0.  1.
       11   -1    0    0    0    0 -0.00000000000E+00 -0.00000000000E+00 -0.34996269501E-01  0.35000000000E-01  0.51099999109E-03 0. -1.
       22    1    1    2    0    0  0.43873211636E-02  0.11350081633E-01 -0.23605712315E-01  0.26557533657E-01  0.00000000000E+00 0. -1.
       22    1    1    2    0    0 -0.62279260834E-03 -0.86842664731E-02  0.32379681053E-01  0.33529809124E-01  0.00000000000E+00 0.  1.
       22    1    1    2    0    0 -0.37645285553E-02 -0.26658151600E-02 -0.87739687381E-02  0.99126572184E-02  0.00000000000E+00 0. -1.
</event>
<event>
 5   0  0.2147244E+06  0.9118800E+02  0.7546771E-02  0.1180000E+00
      -11   -1    0    0    0    0  0.00000000000E+00  0.00000000000E+00  0.34996269501E-01  0.35000000000E-01  0.51099999109E-03 0. -1.
       11   -1    0    0    0    0 -0.00000000000E+00 -0.00000000000E+00 -0.34996269501E-01  0.35000000000E-01  0.51099999109E-03 0. -1.
       22    1    1    2    0    0  0.12519702789E-05  0.22276667197E-05  0.11941815603E-04  0.12212161499E-04  0.00000000000E+00 0. -1.
       22    1    1    2    0    0 -0.12520405009E-05 -0.22277916676E-05  0.34988116980E-01  0.34987923025E-01  0.00000000000E+00 0. -1.
       22    1    1    2    0    0  0.70221930064E-10  0.12494789951E-09 -0.35000058796E-01  0.34999864813E-01  0.00000000000E+00 0. -1.
</event>
<event>
 5   0  0.2147244E+06  0.9118800E+02  0.7546771E-02  0.1180000E+00
      -11   -1    0    0    0    0  0.00000000000E+00  0.00000000000E+00  0.34996269501E-01  0.35000000000E-01  0.51099999109E-03 0. -1.
       11   -1    0    0    0    0 -0.00000000000E+00 -0.00000000000E+00 -0.34996269501E-01  0.35000000000E-01  0.51099999109E-03 0.  1.
       22    1    1    2    0    0  0.20227516651E-02 -0.26202344884E-02 -0.34843103086E-01  0.34999985511E-01  0.00000000000E+00 0.  1.
       22    1    1    2    0    0 -0.20227897660E-02  0.26203777631E-02  0.34840444115E-01  0.34997351388E-01  0.00000000000E+00 0. -1.
       22    1    1    2    0    0  0.38100853285E-07 -0.14327469196E-06  0.26589711263E-05  0.26631009675E-05  0.00000000000E+00 0.  1.
</event>
<event>
 5   0  0.2147244E+06  0.9118800E+02  0.7546771E-02  0.1180000E+00
      -11   -1    0    0    0    0  0.00000000000E+00  0.00000000000E+00  0.34996269501E-01  0.35000000000E-01  0.51099999109E-03 0.  1.
       11   -1    0    0    0    0 -0.00000000000E+00 -0.00000000000E+00 -0.34996269501E-01  0.35000000000E-01  0.51099999109E-03 0. -1.
       22    1    1    2    0    0  0.15840800904E-01  0.19038525220E-01  0.24681299832E-01  0.34965168057E-01  0.00000000000E+00 0.  1.
       22    1    1    2    0    0 -0.15855110069E-01 -0.19017631610E-01 -0.24720625952E-01  0.34988057603E-01  0.00000000000E+00 0. -1.
       22    1    1    2    0    0  0.14309165495E-04 -0.20893610050E-04  0.39326119915E-04  0.46774339820E-04  0.00000000000E+00 0. -1.
</event>
<event>
 5   0  0.2147244E+06  0.9118800E+02  0.7546771E-02  0.1180000E+00
      -11   -1    0    0    0    0  0.00000000000E+00  0.00000000000E+00  0.34996269501E-01  0.35000000000E-01  0.51099999109E-03 0. -1.
       11   -1    0    0    0    0 -0.00000000000E+00 -0.00000000000E+00 -0.34996269501E-01  0.35000000000E-01  0.51099999109E-03 0.  1.
       22    1    1    2    0    0 -0.99954862631E-03 -0.34847851839E-02  0.34811615811E-01  0.34999877437E-01  0.00000000000E+00 0. -1.
       22    1    1    2    0    0  0.11771295575E-07  0.10258514816E-07  0.12307928130E-06  0.12406574874E-06  0.00000000000E+00 0.  1.
       22    1    1    2    0    0  0.99953685502E-03  0.34847749254E-02 -0.34811738891E-01  0.34999998497E-01  0.00000000000E+00 0.  1.
</event>
<event>
 5   0  0.2147244E+06  0.9118800E+02  0.7546771E-02  0.1180000E+00
      -11   -1    0    0    0    0  0.00000000000E+00  0.00000000000E+00  0.34996269501E-01  0.35000000000E-01  0.51099999109E-03 0. -1.
       11   -1    0    0    0    0 -0.00000000000E+00 -0.00000000000E+00 -0.34996269501E-01  0.35000000000E-01  0.51099999109E-03 0.  1.
       22    1    1    2    0    0 -0.34720343982E-06  0.11264425427E-05  0.17506090882E-05  0.21104632692E-05  0.00000000000E+00 0. -1.
       22    1    1    2    0    0 -0.31849726178E-01 -0.57924439184E-02  0.13301911470E-01  0.34998547297E-01  0.00000000000E+00 0. -1.
       22    1    1    2    0    0  0.31850073381E-01  0.57913174759E-02 -0.13303662079E-01  0.34999342240E-01  0.00000000000E+00 0.  1.
</event>
<event>
 5   0  0.2147244E+06  0.9118800E+02  0.7546771E-02  0.1180000E+00
      -11   -1    0    0    0    0  0.00000000000E+00  0.00000000000E+00  0.34996269501E-01  0.35000000000E-01  0.51099999109E-03 0.  1.
       11   -1    0    0    0    0 -0.00000000000E+00 -0.00000000000E+00 -0.34996269501E-01  0.35000000000E-01  0.51099999109E-03 0. -1.
       22    1    1    2    0    0  0.93577714915E-02  0.39164546132E-02 -0.59402986156E-02  0.11755579597E-01  0.00000000000E+00 0. -1.
       22    1    1    2    0    0 -0.89582927674E-02 -0.38224218428E-02  0.31351688599E-01  0.32829716661E-01  0.00000000000E+00 0.  1.
       22    1    1    2    0    0 -0.39947872413E-03 -0.94032770453E-04 -0.25411389983E-01  0.25414703742E-01  0.00000000000E+00 0. -1.
</event>
<event>
 5   0  0.2147244E+06  0.9118800E+02  0.7546771E-02  0.1180000E+00
      -11   -1    0    0    0    0  0.00000000000E+00  0.00000000000E+00  0.34996269501E-01  0.35000000000E-01  0.51099999109E-03 0.  1.
       11   -1    0    0    0    0 -0.00000000000E+00 -0.00000000000E+00 -0.34996269501E-01  0.35000000000E-01  0.51099999109E-03 0. -1.
       22    1    1    2    0    0  0.47128259423E-02 -0.74200247810E-02 -0.30806770651E-01  0.32036301504E-01  0.00000000000E+00 0. -1.
       22    1    1    2    0    0 -0.61743521842E-02  0.73751420815E-02  0.33524796966E-01  0.34877318665E-01  0.00000000000E+00 0.  1.
       22    1    1    2    0    0  0.14615262420E-02  0.44882699531E-04 -0.27180263152E-02  0.30863798313E-02  0.00000000000E+00 0. -1.
</event>
<event>
 5   0  0.2147244E+06  0.9118800E+02  0.7546771E-02  0.1180000E+00
      -11   -1    0    0    0    0  0.00000000000E+00  0.00000000000E+00  0.34996269501E-01  0.35000000000E-01  0.51099999109E-03 0. -1.
       11   -1    0    0    0    0 -0.00000000000E+00 -0.00000000000E+00 -0.34996269501E-01  0.35000000000E-01  0.51099999109E-03 0.  1.
       22    1    1    2    0    0  0.95949641718E-02  0.29726455341E-01 -0.15788400456E-01  0.34999986766E-01  0.00000000000E+00 0.  1.
       22    1    1    2    0    0 -0.95949683376E-02 -0.29726455782E-01  0.15788355351E-01  0.34999967935E-01  0.00000000000E+00 0. -1.
       22    1    1    2    0    0  0.41657588814E-08  0.44044104704E-09  0.45105770970E-07  0.45299868766E-07  0.00000000000E+00 0. -1.
</event>
<event>
 5   0  0.2147244E+06  0.9118800E+02  0.7546771E-02  0.1180000E+00
      -11   -1    0    0    0    0  0.00000000000E+00  0.00000000000E+00  0.34996269501E-01  0.35000000000E-01  0.51099999109E-03 0.  1.
       11   -1    0    0    0    0 -0.00000000000E+00 -0.00000000000E+00 -0.34996269501E-01  0.35000000000E-01  0.51099999109E-03 0. -1.
       22    1    1    2    0    0  0.52328349603E-02  0.11968755390E-01 -0.32471006715E-01  0.34999999205E-01  0.00000000000E+00 0. -1.
       22    1    1    2    0    0  0.22273733875E-08  0.97542506267E-09  0.73357308394E-08  0.77282335115E-08  0.00000000000E+00 0. -1.
       22    1    1    2    0    0 -0.52328371877E-02 -0.11968756365E-01  0.32470999379E-01  0.34999993066E-01  0.00000000000E+00 0.  1.
</event>
<event>
 5   0  0.2147244E+06  0.9118800E+02  0.7546771E-02  0.1180000E+00
      -11   -1    0    0    0    0  0.00000000000E+00  0.00000000000E+00  0.34996269501E-01  0.35000000000E-01  0.51099999109E-03 0. -1.
       11   -1    0    0    0    0 -0.00000000000E+00 -0.00000000000E+00 -0.34996269501E-01  0.35000000000E-01  0.51099999109E-03 0.  1.
       22    1    1    2    0    0  0.52781100320E-02  0.75490475887E-04 -0.34599630553E-01  0.34999979696E-01  0.00000000000E+00 0.  1.
       22    1    1    2    0    0  0.16344867924E-07  0.23736060666E-06  0.21331861335E-05  0.21464133554E-05  0.00000000000E+00 0.  1.
       22    1    1    2    0    0 -0.52781263768E-02 -0.75727836494E-04  0.34597497367E-01  0.34997873890E-01  0.00000000000E+00 0. -1.
</event>
<event>
 5   0  0.2147244E+06  0.9118800E+02  0.7546771E-02  0.1180000E+00
      -11   -1    0    0    0    0  0.00000000000E+00  0.00000000000E+00  0.34996269501E-01  0.35000000000E-01  0.51099999109E-03 0. -1.
       11   -1    0    0    0    0 -0.00000000000E+00 -0.00000000000E+00 -0.34996269501E-01  0.35000000000E-01  0.51099999109E-03 0.  1.
       22    1    1    2    0    0 -0.62151943909E-07  0.12008675023E-06  0.82257456996E-06  0.83361418825E-06  0.00000000000E+00 0. -1.
       22    1    1    2    0    0 -0.23407775839E-01 -0.11578292826E-01 -0.23302555495E-01  0.34999856100E-01  0.00000000000E+00 0.  1.
       22    1    1    2    0    0  0.23407837991E-01  0.11578172739E-01  0.23301732920E-01  0.34999310285E-01  0.00000000000E+00 0. -1.
</event>
<event>
 5   0  0.2147244E+06  0.9118800E+02  0.7546771E-02  0.1180000E+00
      -11   -1    0    0    0    0  0.00000000000E+00  0.00000000000E+00  0.34996269501E-01  0.35000000000E-01  0.51099999109E-03 0. -1.
       11   -1    0    0    0    0 -0.00000000000E+00 -0.00000000000E+00 -0.34996269501E-01  0.35000000000E-01  0.51099999109E-03 0.  1.
       22    1    1    2    0    0  0.19446068480E-01 -0.14368075299E-01  0.25306205828E-01  0.34999931722E-01  0.00000000000E+00 0. -1.
       22    1    1    2    0    0  0.32460271837E-07  0.10755963712E-06  0.53112831297E-07  0.12427275499E-06  0.00000000000E+00 0. -1.
       22    1    1    2    0    0 -0.19446100941E-01  0.14367967740E-01 -0.25306258941E-01  0.34999944005E-01  0.00000000000E+00 0.  1.
</event>
<event>
 5   0  0.2147244E+06  0.9118800E+02  0.7546771E-02  0.1180000E+00
      -11   -1    0    0    0    0  0.00000000000E+00  0.00000000000E+00  0.34996269501E-01  0.35000000000E-01  0.51099999109E-03 0.  1.
       11   -1    0    0    0    0 -0.00000000000E+00 -0.00000000000E+00 -0.34996269501E-01  0.35000000000E-01  0.51099999109E-03 0. -1.
       22    1    1    2    0    0  0.34166886614E-02  0.27554728099E-02  0.34723661885E-01  0.34999986950E-01  0.00000000000E+00 0.  1.
       22    1    1    2    0    0 -0.34167122745E-02 -0.27554778203E-02 -0.34723661129E-01  0.34999988899E-01  0.00000000000E+00 0. -1.
       22    1    1    2    0    0  0.23613173639E-07  0.50104216741E-08 -0.75594427675E-09  0.24150729729E-07  0.00000000000E+00 0.  1.
</event>
<event>
 5   0  0.2147244E+06  0.9118800E+02  0.7546771E-02  0.1180000E+00
      -11   -1    0    0    0    0  0.00000000000E+00  0.00000000000E+00  0.34996269501E-01  0.35000000000E-01  0.51099999109E-03 0. -1.
       11   -1    0    0    0    0 -0.00000000000E+00 -0.00000000000E+00 -0.34996269501E-01  0.35000000000E-01  0.51099999109E-03 0.  1.
       22    1    1    2    0    0 -0.85925078352E-02  0.39078132936E-02  0.33702907529E-01  0.34999831022E-01  0.00000000000E+00 0. -1.
       22    1    1    2    0    0 -0.60123935053E-08 -0.33958800355E-08  0.17153826332E-06  0.17167718736E-06  0.00000000000E+00 0. -1.
       22    1    1    2    0    0  0.85925138475E-02 -0.39078098977E-02 -0.33703079068E-01  0.34999997301E-01  0.00000000000E+00 0.  1.
</event>
<event>
 5   0  0.2147244E+06  0.9118800E+02  0.7546771E-02  0.1180000E+00
      -11   -1    0    0    0    0  0.00000000000E+00  0.00000000000E+00  0.34996269501E-01  0.35000000000E-01  0.51099999109E-03 0. -1.
       11   -1    0    0    0    0 -0.00000000000E+00 -0.00000000000E+00 -0.34996269501E-01  0.35000000000E-01  0.51099999109E-03 0. -1.
       22    1    1    2    0    0  0.11574170837E-02 -0.37120695503E-03  0.22872186566E-02  0.25901309025E-02  0.00000000000E+00 0.  1.
       22    1    1    2    0    0 -0.10778779904E-02 -0.23654947265E-03 -0.34836921657E-01  0.34854395521E-01  0.00000000000E+00 0. -1.
       22    1    1    2    0    0 -0.79539093312E-04  0.60775642768E-03  0.32549703000E-01  0.32555473576E-01  0.00000000000E+00 0. -1.
</event>
<event>
 5   0  0.2147244E+06  0.9118800E+02  0.7546771E-02  0.1180000E+00
      -11   -1    0    0    0    0  0.00000000000E+00  0.00000000000E+00  0.34996269501E-01  0.35000000000E-01  0.51099999109E-03 0.  1.
       11   -1    0    0    0    0 -0.00000000000E+00 -0.00000000000E+00 -0.34996269501E-01  0.35000000000E-01  0.51099999109E-03 0. -1.
       22    1    1    2    0    0  0.28482071228E-02 -0.53072449948E-02 -0.12862554337E-01  0.14202972834E-01  0.00000000000E+00 0. -1.
       22    1    1    2    0    0 -0.83790860563E-02  0.85850470625E-02  0.32759622243E-01  0.34887031484E-01  0.00000000000E+00 0.  1.
       22    1    1    2    0    0  0.55308789335E-02 -0.32778020676E-02 -0.19897067907E-01  0.20909995683E-01  0.00000000000E+00 0. -1.
</event>
<event>
 5   0  0.2147244E+06  0.9118800E+02  0.7546771E-02  0.1180000E+00
      -11   -1    0    0    0    0  0.00000000000E+00  0.00000000000E+00  0.34996269501E-01  0.35000000000E-01  0.51099999109E-03 0.  1.
       11   -1    0    0    0    0 -0.00000000000E+00 -0.00000000000E+00 -0.34996269501E-01  0.35000000000E-01  0.51099999109E-03 0. -1.
       22    1    1    2    0    0 -0.77502488600E-05 -0.67303717864E-05  0.10582535019E-03  0.10632200621E-03  0.00000000000E+00 0.  1.
       22    1    1    2    0    0 -0.91324316772E-02 -0.40515074614E-02  0.33433910862E-01  0.34894733365E-01  0.00000000000E+00 0.  1.
       22    1    1    2    0    0  0.91401819260E-02  0.40582378332E-02 -0.33539736212E-01  0.34998944629E-01  0.00000000000E+00 0. -1.
</event>
<event>
 5   0  0.2147244E+06  0.9118800E+02  0.7546771E-02  0.1180000E+00
      -11   -1    0    0    0    0  0.00000000000E+00  0.00000000000E+00  0.34996269501E-01  0.35000000000E-01  0.51099999109E-03 0. -1.
       11   -1    0    0    0    0 -0.00000000000E+00 -0.00000000000E+00 -0.34996269501E-01  0.35000000000E-01  0.51099999109E-03 0.  1.
       22    1    1    2    0    0  0.46557344391E-02  0.52508047687E-03 -0.34684987703E-01  0.34999999209E-01  0.00000000000E+00 0.  1.
       22    1    1    2    0    0 -0.92013514026E-06 -0.22517769711E-06  0.63840740168E-05  0.64539720114E-05  0.00000000000E+00 0.  1.
       22    1    1    2    0    0 -0.46548143040E-02 -0.52485529917E-03  0.34678603629E-01  0.34993546819E-01  0.00000000000E+00 0. -1.
</event>
<event>
 5   0  0.2147244E+06  0.9118800E+02  0.7546771E-02  0.1180000E+00
      -11   -1    0    0    0    0  0.00000000000E+00  0.00000000000E+00  0.34996269501E-01  0.35000000000E-01  0.51099999109E-03 0.  1.
       11   -1    0    0    0    0 -0.00000000000E+00 -0.00000000000E+00 -0.34996269501E-01  0.35000000000E-01  0.51099999109E-03 0. -1.
       22    1    1    2    0    0 -0.24457140752E-01  0.83446182301E-02 -0.23605372792E-01  0.34999971598E-01  0.00000000000E+00 0. -1.
       22    1    1    2    0    0  0.45700709674E-07 -0.14067385637E-06  0.50378621181E-07  0.15625522137E-06  0.00000000000E+00 0. -1.
       22    1    1    2    0    0  0.24457095052E-01 -0.83444775562E-02  0.23605322414E-01  0.34999872147E-01  0.00000000000E+00 0.  1.
</event>
<event>
 5   0  0.2147244E+06  0.9118800E+02  0.7546771E-02  0.1180000E+00
      -11   -1    0    0    0    0  0.00000000000E+00  0.00000000000E+00  0.34996269501E-01  0.35000000000E-01  0.51099999109E-03 0.  1.
       11   -1    0    0    0    0 -0.00000000000E+00 -0.00000000000E+00 -0.34996269501E-01  0.35000000000E-01  0.51099999109E-03 0. -1.
       22    1    1    2    0    0 -0.99729834421E-04 -0.49895243019E-04  0.15565082694E-02  0.15604978590E-02  0.00000000000E+00 0.  1.
       22    1    1    2    0    0  0.95612575887E-03  0.13015987651E-02  0.33405548173E-01  0.33444565845E-01  0.00000000000E+00 0.  1.
       22    1    1    2    0    0 -0.85639592445E-03 -0.12517035220E-02 -0.34962056442E-01  0.34994936296E-01  0.00000000000E+00 0. -1.
</event>
<event>
 5   0  0.2147244E+06  0.9118800E+02  0.7546771E-02  0.1180000E+00
      -11   -1    0    0    0    0  0.00000000000E+00  0.00000000000E+00  0.34996269501E-01  0.35000000000E-01  0.51099999109E-03 0.  1.
       11   -1    0    0    0    0 -0.00000000000E+00 -0.00000000000E+00 -0.34996269501E-01  0.35000000000E-01  0.51099999109E-03 0. -1.
       22    1    1    2    0    0 -0.85024732683E-04  0.18867414229E-02 -0.34776790499E-01  0.34828037266E-01  0.00000000000E+00 0. -1.
       22    1    1    2    0    0 -0.17187120154E-03 -0.17581461106E-03 -0.90337157919E-04  0.26193756791E-03  0.00000000000E+00 0.  1.
       22    1    1    2    0    0  0.25689593423E-03 -0.17109268118E-02  0.34867127657E-01  0.34910025166E-01  0.00000000000E+00 0.  1.
</event>
<event>
 5   0  0.2147244E+06  0.9118800E+02  0.7546771E-02  0.1180000E+00
      -11   -1    0    0    0    0  0.00000000000E+00  0.00000000000E+00  0.34996269501E-01  0.35000000000E-01  0.51099999109E-03 0. -1.
       11   -1    0    0    0    0 -0.00000000000E+00 -0.00000000000E+00 -0.34996269501E-01  0.35000000000E-01  0.51099999109E-03 0.  1.
       22    1    1    2    0    0  0.37985334865E-02 -0.45590556953E-02  0.34493155855E-01  0.34999880661E-01  0.00000000000E+00 0. -1.
       22    1    1    2    0    0 -0.64544181282E-08 -0.14575924672E-07  0.11907028039E-06  0.12013262990E-06  0.00000000000E+00 0. -1.
       22    1    1    2    0    0 -0.37985270320E-02  0.45590702712E-02 -0.34493274925E-01  0.34999999206E-01  0.00000000000E+00 0.  1.
</event>
<event>
 5   0  0.2147244E+06  0.9118800E+02  0.7546771E-02  0.1180000E+00
      -11   -1    0    0    0    0  0.00000000000E+00  0.00000000000E+00  0.34996269501E-01  0.35000000000E-01  0.51099999109E-03 0.  1.
       11   -1    0    0    0    0 -0.00000000000E+00 -0.00000000000E+00 -0.34996269501E-01  0.35000000000E-01  0.51099999109E-03 0. -1.
       22    1    1    2    0    0 -0.19382461999E-02 -0.95608866701E-03 -0.34932745568E-01  0.34999537379E-01  0.00000000000E+00 0. -1.
       22    1    1    2    0    0 -0.51964733519E-05  0.94822159710E-05  0.38486628079E-03  0.38501814223E-03  0.00000000000E+00 0. -1.
       22    1    1    2    0    0  0.19434426732E-02  0.94660645104E-03  0.34547879287E-01  0.34615444478E-01  0.00000000000E+00 0.  1.
</event>
<event>
 5   0  0.2147244E+06  0.9118800E+02  0.7546771E-02  0.1180000E+00
      -11   -1    0    0    0    0  0.00000000000E+00  0.00000000000E+00  0.34996269501E-01  0.35000000000E-01  0.51099999109E-03 0. -1.
       11   -1    0    0    0    0 -0.00000000000E+00 -0.00000000000E+00 -0.34996269501E-01  0.35000000000E-01  0.51099999109E-03 0.  1.
       22    1    1    2    0    0  0.28324999787E-01 -0.16301523582E-01 -0.12506018708E-01  0.34992081789E-01  0.00000000000E+00 0.  1.
       22    1    1    2    0    0  0.43041115924E-05 -0.45425932386E-05  0.13822317255E-04  0.15172902960E-04  0.00000000000E+00 0. -1.
       22    1    1    2    0    0 -0.28329303899E-01  0.16306066176E-01  0.12492196391E-01  0.34992745308E-01  0.00000000000E+00 0. -1.
</event>
<event>
 5   0  0.2147244E+06  0.9118800E+02  0.7546771E-02  0.1180000E+00
      -11   -1    0    0    0    0  0.00000000000E+00  0.00000000000E+00  0.34996269501E-01  0.35000000000E-01  0.51099999109E-03 0.  1.
       11   -1    0    0    0    0 -0.00000000000E+00 -0.00000000000E+00 -0.34996269501E-01  0.35000000000E-01  0.51099999109E-03 0. -1.
       22    1    1    2    0    0  0.71730271262E-03 -0.81296515273E-03 -0.32625716736E-01  0.32643725707E-01  0.00000000000E+00 0. -1.
       22    1    1    2    0    0  0.19096925450E-02 -0.61698019917E-02  0.36146841495E-02  0.74013055425E-02  0.00000000000E+00 0. -1.
       22    1    1    2    0    0 -0.26269952576E-02  0.69827671444E-02  0.29011032587E-01  0.29954968750E-01  0.00000000000E+00 0.  1.
</event>
<event>
 5   0  0.2147244E+06  0.9118800E+02  0.7546771E-02  0.1180000E+00
      -11   -1    0    0    0    0  0.00000000000E+00  0.00000000000E+00  0.34996269501E-01  0.35000000000E-01  0.51099999109E-03 0. -1.
       11   -1    0    0    0    0 -0.00000000000E+00 -0.00000000000E+00 -0.34996269501E-01  0.35000000000E-01  0.51099999109E-03 0.  1.
       22    1    1    2    0    0 -0.21184215647E-02 -0.62012019632E-02  0.10816152919E-01  0.12646413708E-01  0.00000000000E+00 0. -1.
       22    1    1    2    0    0 -0.51642514233E-02 -0.62068314816E-02  0.20965766813E-01  0.22466811697E-01  0.00000000000E+00 0. -1.
       22    1    1    2    0    0  0.72826729880E-02  0.12408033445E-01 -0.31781919731E-01  0.34886774595E-01  0.00000000000E+00 0.  1.
</event>
<event>
 5   0  0.2147244E+06  0.9118800E+02  0.7546771E-02  0.1180000E+00
      -11   -1    0    0    0    0  0.00000000000E+00  0.00000000000E+00  0.34996269501E-01  0.35000000000E-01  0.51099999109E-03 0. -1.
       11   -1    0    0    0    0 -0.00000000000E+00 -0.00000000000E+00 -0.34996269501E-01  0.35000000000E-01  0.51099999109E-03 0.  1.
       22    1    1    2    0    0  0.17050672107E-01 -0.24102180627E-01 -0.18797664547E-01  0.34999896039E-01  0.00000000000E+00 0.  1.
       22    1    1    2    0    0  0.12213705495E-07 -0.86036171102E-07  0.27983525913E-06  0.29301735373E-06  0.00000000000E+00 0. -1.
       22    1    1    2    0    0 -0.17050684321E-01  0.24102266663E-01  0.18797384712E-01  0.34999810944E-01  0.00000000000E+00 0. -1.
</event>
<event>
 5   0  0.2147244E+06  0.9118800E+02  0.7546771E-02  0.1180000E+00
      -11   -1    0    0    0    0  0.00000000000E+00  0.00000000000E+00  0.34996269501E-01  0.35000000000E-01  0.51099999109E-03 0. -1.
       11   -1    0    0    0    0 -0.00000000000E+00 -0.00000000000E+00 -0.34996269501E-01  0.35000000000E-01  0.51099999109E-03 0.  1.
       22    1    1    2    0    0 -0.11870463712E-02  0.23667571485E-02 -0.34801842596E-01  0.34902419208E-01  0.00000000000E+00 0.  1.
       22    1    1    2    0    0  0.12284915875E-04  0.18045320108E-03 -0.20007688367E-05  0.18088195049E-03  0.00000000000E+00 0. -1.
       22    1    1    2    0    0  0.11747614554E-02 -0.25472103496E-02  0.34803843365E-01  0.34916698842E-01  0.00000000000E+00 0. -1.
</event>
<event>
 5   0  0.2147244E+06  0.9118800E+02  0.7546771E-02  0.1180000E+00
      -11   -1    0    0    0    0  0.00000000000E+00  0.00000000000E+00  0.34996269501E-01  0.35000000000E-01  0.51099999109E-03 0.  1.
       11   -1    0    0    0    0 -0.00000000000E+00 -0.00000000000E+00 -0.34996269501E-01  0.35000000000E-01  0.51099999109E-03 0. -1.
       22    1    1    2    0    0  0.30698083495E-03 -0.12408183830E-02 -0.34976213149E-01  0.34999562194E-01  0.00000000000E+00 0. -1.
       22    1    1    2    0    0  0.10180603714E-04 -0.38056674081E-05  0.10132184435E-03  0.10190311055E-03  0.00000000000E+00 0.  1.
       22    1    1    2    0    0 -0.31716143866E-03  0.12446240504E-02  0.34874891305E-01  0.34898534696E-01  0.00000000000E+00 0.  1.
</event>
<event>
 5   0  0.2147244E+06  0.9118800E+02  0.7546771E-02  0.1180000E+00
      -11   -1    0    0    0    0  0.00000000000E+00  0.00000000000E+00  0.34996269501E-01  0.35000000000E-01  0.51099999109E-03 0. -1.
       11   -1    0    0    0    0 -0.00000000000E+00 -0.00000000000E+00 -0.34996269501E-01  0.35000000000E-01  0.51099999109E-03 0.  1.
       22    1    1    2    0    0 -0.46838204005E-07  0.93126003180E-08  0.59737735258E-06  0.59928310776E-06  0.00000000000E+00 0.  1.
       22    1    1    2    0    0 -0.23965885293E-02  0.12137375527E-02 -0.34896747021E-01  0.34999996401E-01  0.00000000000E+00 0.  1.
       22    1    1    2    0    0  0.23966353675E-02 -0.12137468653E-02  0.34896149643E-01  0.34999404316E-01  0.00000000000E+00 0. -1.
</event>
<event>
 5   0  0.2147244E+06  0.9118800E+02  0.7546771E-02  0.1180000E+00
      -11   -1    0    0    0    0  0.00000000000E+00  0.00000000000E+00  0.34996269501E-01  0.35000000000E-01  0.51099999109E-03 0. -1.
       11   -1    0    0    0    0 -0.00000000000E+00 -0.00000000000E+00 -0.34996269501E-01  0.35000000000E-01  0.51099999109E-03 0.  1.
       22    1    1    2    0    0  0.13416945866E-04 -0.41821076499E-04 -0.91031889381E-05  0.44854040228E-04  0.00000000000E+00 0.  1.
       22    1    1    2    0    0 -0.42515733737E-02  0.23492135127E-02  0.34645427462E-01  0.34984286820E-01  0.00000000000E+00 0. -1.
       22    1    1    2    0    0  0.42381564279E-02 -0.23073924362E-02 -0.34636324274E-01  0.34970859139E-01  0.00000000000E+00 0.  1.
</event>
<event>
 5   0  0.2147244E+06  0.9118800E+02  0.7546771E-02  0.1180000E+00
      -11   -1    0    0    0    0  0.00000000000E+00  0.00000000000E+00  0.34996269501E-01  0.35000000000E-01  0.51099999109E-03 0. -1.
       11   -1    0    0    0    0 -0.00000000000E+00 -0.00000000000E+00 -0.34996269501E-01  0.35000000000E-01  0.51099999109E-03 0.  1.
       22    1    1    2    0    0 -0.44047202899E-02  0.34065779727E-01  0.67171872466E-02  0.34999993053E-01  0.00000000000E+00 0. -1.
       22    1    1    2    0    0 -0.48818017886E-08 -0.32562672584E-08  0.12718987417E-07  0.14007423249E-07  0.00000000000E+00 0. -1.
       22    1    1    2    0    0  0.44047251717E-02 -0.34065776470E-01 -0.67171999656E-02  0.34999992939E-01  0.00000000000E+00 0.  1.
</event>
<event>
 5   0  0.2147244E+06  0.9118800E+02  0.7546771E-02  0.1180000E+00
      -11   -1    0    0    0    0  0.00000000000E+00  0.00000000000E+00  0.34996269501E-01  0.35000000000E-01  0.51099999109E-03 0.  1.
       11   -1    0    0    0    0 -0.00000000000E+00 -0.00000000000E+00 -0.34996269501E-01  0.35000000000E-01  0.51099999109E-03 0. -1.
       22    1    1    2    0    0  0.14431390797E-03 -0.15570257719E-03  0.62404675110E-02  0.62440775581E-02  0.00000000000E+00 0.  1.
       22    1    1    2    0    0 -0.23549625045E-02 -0.28643787566E-02  0.28537365657E-01  0.28777278410E-01  0.00000000000E+00 0.  1.
       22    1    1    2    0    0  0.22106485966E-02  0.30200813338E-02 -0.34777833168E-01  0.34978644032E-01  0.00000000000E+00 0. -1.
</event>
<event>
 5   0  0.2147244E+06  0.9118800E+02  0.7546771E-02  0.1180000E+00
      -11   -1    0    0    0    0  0.00000000000E+00  0.00000000000E+00  0.34996269501E-01  0.35000000000E-01  0.51099999109E-03 0. -1.
       11   -1    0    0    0    0 -0.00000000000E+00 -0.00000000000E+00 -0.34996269501E-01  0.35000000000E-01  0.51099999109E-03 0.  1.
       22    1    1    2    0    0 -0.11531210633E-03  0.40133871995E-03 -0.28586984839E-03  0.50605456249E-03  0.00000000000E+00 0. -1.
       22    1    1    2    0    0  0.79076437414E-02  0.27881328118E-02  0.33858671962E-01  0.34881430320E-01  0.00000000000E+00 0. -1.
       22    1    1    2    0    0 -0.77923316350E-02 -0.31894715317E-02 -0.33572802114E-01  0.34612515117E-01  0.00000000000E+00 0.  1.
</event>
<event>
 5   0  0.2147244E+06  0.9118800E+02  0.7546771E-02  0.1180000E+00
      -11   -1    0    0    0    0  0.00000000000E+00  0.00000000000E+00  0.34996269501E-01  0.35000000000E-01  0.51099999109E-03 0.  1.
       11   -1    0    0    0    0 -0.00000000000E+00 -0.00000000000E+00 -0.34996269501E-01  0.35000000000E-01  0.51099999109E-03 0. -1.
       22    1    1    2    0    0 -0.52440266281E-02  0.32874908542E-01 -0.55512820446E-02  0.33750202358E-01  0.00000000000E+00 0. -1.
       22    1    1    2    0    0  0.49399377941E-02 -0.33808789899E-01  0.39827111840E-02  0.34399116969E-01  0.00000000000E+00 0.  1.
       22    1    1    2    0    0  0.30408883400E-03  0.93388135737E-03  0.15685708606E-02  0.18506806729E-02  0.00000000000E+00 0. -1.
</event>
<event>
 5   0  0.2147244E+06  0.9118800E+02  0.7546771E-02  0.1180000E+00
      -11   -1    0    0    0    0  0.00000000000E+00  0.00000000000E+00  0.34996269501E-01  0.35000000000E-01  0.51099999109E-03 0.  1.
       11   -1    0    0    0    0 -0.00000000000E+00 -0.00000000000E+00 -0.34996269501E-01  0.35000000000E-01  0.51099999109E-03 0. -1.
       22    1    1    2    0    0 -0.22606562733E-02  0.72173441441E-02  0.34173068520E-01  0.34999989076E-01  0.00000000000E+00 0.  1.
       22    1    1    2    0    0  0.22606568431E-02 -0.72173426662E-02 -0.34173079653E-01  0.34999999678E-01  0.00000000000E+00 0. -1.
       22    1    1    2    0    0 -0.56979247651E-09 -0.14779011671E-08  0.11133076707E-07  0.11245187961E-07  0.00000000000E+00 0.  1.
</event>
<event>
 5   0  0.2147244E+06  0.9118800E+02  0.7546771E-02  0.1180000E+00
      -11   -1    0    0    0    0  0.00000000000E+00  0.00000000000E+00  0.34996269501E-01  0.35000000000E-01  0.51099999109E-03 0. -1.
       11   -1    0    0    0    0 -0.00000000000E+00 -0.00000000000E+00 -0.34996269501E-01  0.35000000000E-01  0.51099999109E-03 0.  1.
       22    1    1    2    0    0 -0.20929548977E-02  0.11371525292E-02 -0.32483336426E-01  0.32570549910E-01  0.00000000000E+00 0.  1.
       22    1    1    2    0    0  0.28396345669E-03 -0.80789198728E-03 -0.23739608617E-02  0.25236907260E-02  0.00000000000E+00 0. -1.
       22    1    1    2    0    0  0.18089914410E-02 -0.32926054194E-03  0.34857297288E-01  0.34905759364E-01  0.00000000000E+00 0. -1.
</event>
<event>
 5   0  0.2147244E+06  0.9118800E+02  0.7546771E-02  0.1180000E+00
      -11   -1    0    0    0    0  0.00000000000E+00  0.00000000000E+00  0.34996269501E-01  0.35000000000E-01  0.51099999109E-03 0.  1.
       11   -1    0    0    0    0 -0.00000000000E+00 -0.00000000000E+00 -0.34996269501E-01  0.35000000000E-01  0.51099999109E-03 0. -1.
       22    1    1    2    0    0  0.51630873534E-03  0.47700291762E-03 -0.51460249397E-02  0.51938116228E-02  0.00000000000E+00 0.  1.
       22    1    1    2    0    0  0.77745215919E-02 -0.68942591079E-02  0.33236498412E-01  0.34822963994E-01  0.00000000000E+00 0.  1.
       22    1    1    2    0    0 -0.82908303272E-02  0.64172561903E-02 -0.28090473472E-01  0.29983224383E-01  0.00000000000E+00 0. -1.
</event>
<event>
 5   0  0.2147244E+06  0.9118800E+02  0.7546771E-02  0.1180000E+00
      -11   -1    0    0    0    0  0.00000000000E+00  0.00000000000E+00  0.34996269501E-01  0.35000000000E-01  0.51099999109E-03 0. -1.
       11   -1    0    0    0    0 -0.00000000000E+00 -0.00000000000E+00 -0.34996269501E-01  0.35000000000E-01  0.51099999109E-03 0.  1.
       22    1    1    2    0    0 -0.20593085233E-08 -0.14240112103E-08  0.12342096801E-07  0.12593486927E-07  0.00000000000E+00 0. -1.
       22    1    1    2    0    0  0.19326779709E-03 -0.34587974127E-02 -0.34828140240E-01  0.34999999779E-01  0.00000000000E+00 0.  1.
       22    1    1    2    0    0 -0.19326573778E-03  0.34587988367E-02  0.34828127898E-01  0.34999987627E-01  0.00000000000E+00 0. -1.
</event>
<event>
 5   0  0.2147244E+06  0.9118800E+02  0.7546771E-02  0.1180000E+00
      -11   -1    0    0    0    0  0.00000000000E+00  0.00000000000E+00  0.34996269501E-01  0.35000000000E-01  0.51099999109E-03 0. -1.
       11   -1    0    0    0    0 -0.00000000000E+00 -0.00000000000E+00 -0.34996269501E-01  0.35000000000E-01  0.51099999109E-03 0.  1.
       22    1    1    2    0    0 -0.81657148868E-02  0.21406507815E-01  0.26267186623E-01  0.34855165608E-01  0.00000000000E+00 0. -1.
       22    1    1    2    0    0  0.55570579837E-06 -0.14128733168E-05  0.16565071798E-03  0.16565767530E-03  0.00000000000E+00 0.  1.
       22    1    1    2    0    0  0.81651591810E-02 -0.21405094942E-01 -0.26432837341E-01  0.34979176717E-01  0.00000000000E+00 0.  1.
</event>
<event>
 5   0  0.2147244E+06  0.9118800E+02  0.7546771E-02  0.1180000E+00
      -11   -1    0    0    0    0  0.00000000000E+00  0.00000000000E+00  0.34996269501E-01  0.35000000000E-01  0.51099999109E-03 0. -1.
       11   -1    0    0    0    0 -0.00000000000E+00 -0.00000000000E+00 -0.34996269501E-01  0.35000000000E-01  0.51099999109E-03 0.  1.
       22    1    1    2    0    0  0.25280482800E-01  0.14023812109E-01  0.19727681744E-01  0.34999307760E-01  0.00000000000E+00 0. -1.
       22    1    1    2    0    0 -0.25280450496E-01 -0.14023830332E-01 -0.19728576911E-01  0.34999796305E-01  0.00000000000E+00 0.  1.
       22    1    1    2    0    0 -0.32304168348E-07  0.18223566457E-07  0.89516725324E-06  0.89593530399E-06  0.00000000000E+00 0.  1.
</event>
<event>
 5   0  0.2147244E+06  0.9118800E+02  0.7546771E-02  0.1180000E+00
      -11   -1    0    0    0    0  0.00000000000E+00  0.00000000000E+00  0.34996269501E-01  0.35000000000E-01  0.51099999109E-03 0. -1.
       11   -1    0    0    0    0 -0.00000000000E+00 -0.00000000000E+00 -0.34996269501E-01  0.35000000000E-01  0.51099999109E-03 0.  1.
       22    1    1    2    0    0  0.26844349556E-02  0.40216200086E-02 -0.25537319887E-01  0.25991043179E-01  0.00000000000E+00 0.  1.
       22    1    1    2    0    0  0.38905006053E-04 -0.56584587031E-03  0.34246638474E-01  0.34251334893E-01  0.00000000000E+00 0. -1.
       22    1    1    2    0    0 -0.27233399617E-02 -0.34557741383E-02 -0.87093185872E-02  0.97576219283E-02  0.00000000000E+00 0. -1.
</event>
<event>
 5   0  0.2147244E+06  0.9118800E+02  0.7546771E-02  0.1180000E+00
      -11   -1    0    0    0    0  0.00000000000E+00  0.00000000000E+00  0.34996269501E-01  0.35000000000E-01  0.51099999109E-03 0. -1.
       11   -1    0    0    0    0 -0.00000000000E+00 -0.00000000000E+00 -0.34996269501E-01  0.35000000000E-01  0.51099999109E-03 0.  1.
       22    1    1    2    0    0 -0.24221146903E-01  0.50700839141E-02  0.24751362859E-01  0.34999995308E-01  0.00000000000E+00 0. -1.
       22    1    1    2    0    0  0.24221148750E-01 -0.50700854247E-02 -0.24751367114E-01  0.34999999814E-01  0.00000000000E+00 0.  1.
       22    1    1    2    0    0 -0.18466085612E-08  0.15105560565E-08  0.42550315345E-08  0.48782205914E-08  0.00000000000E+00 0. -1.
</event>
<event>
 5   0  0.2147244E+06  0.9118800E+02  0.7546771E-02  0.1180000E+00
      -11   -1    0    0    0    0  0.00000000000E+00  0.00000000000E+00  0.34996269501E-01  0.35000000000E-01  0.51099999109E-03 0.  1.
       11   -1    0    0    0    0 -0.00000000000E+00 -0.00000000000E+00 -0.34996269501E-01  0.35000000000E-01  0.51099999109E-03 0. -1.
       22    1    1    2    0    0  0.68241712617E-03 -0.67846789485E-03 -0.34977438716E-01  0.34990673485E-01  0.00000000000E+00 0. -1.
       22    1    1    2    0    0 -0.68883669917E-03  0.64210120007E-03  0.34951534106E-01  0.34964217800E-01  0.00000000000E+00 0.  1.
       22    1    1    2    0    0  0.64195730071E-05  0.36366694775E-04  0.25904609519E-04  0.45108715353E-04  0.00000000000E+00 0.  1.
</event>
<event>
 5   0  0.2147244E+06  0.9118800E+02  0.7546771E-02  0.1180000E+00
      -11   -1    0    0    0    0  0.00000000000E+00  0.00000000000E+00  0.34996269501E-01  0.35000000000E-01  0.51099999109E-03 0.  1.
       11   -1    0    0    0    0 -0.00000000000E+00 -0.00000000000E+00 -0.34996269501E-01  0.35000000000E-01  0.51099999109E-03 0. -1.
       22    1    1    2    0    0  0.32854514914E-01 -0.52929922696E-02  0.10842620993E-01  0.34999962105E-01  0.00000000000E+00 0.  1.
       22    1    1    2    0    0 -0.96934651351E-09 -0.74108693012E-08  0.57332570963E-07  0.57817681635E-07  0.00000000000E+00 0. -1.
       22    1    1    2    0    0 -0.32854513944E-01  0.52929996805E-02 -0.10842678325E-01  0.34999980077E-01  0.00000000000E+00 0. -1.
</event>
<event>
 5   0  0.2147244E+06  0.9118800E+02  0.7546771E-02  0.1180000E+00
      -11   -1    0    0    0    0  0.00000000000E+00  0.00000000000E+00  0.34996269501E-01  0.35000000000E-01  0.51099999109E-03 0.  1.
       11   -1    0    0    0    0 -0.00000000000E+00 -0.00000000000E+00 -0.34996269501E-01  0.35000000000E-01  0.51099999109E-03 0.  1.
       22    1    1    2    0    0 -0.29692603477E-03 -0.21995548252E-03 -0.34504694684E-01  0.34506673278E-01  0.00000000000E+00 0.  1.
       22    1    1    2    0    0 -0.00000000000E+00 -0.00000000000E+00  0.34930878472E-01  0.34929253938E-01  0.00000000000E+00 0.  1.
       22    1    1    2    0    0  0.29692603477E-03  0.21995548252E-03 -0.42618378828E-03  0.56407278414E-03  0.00000000000E+00 0. -1.
</event>
<event>
 5   0  0.2147244E+06  0.9118800E+02  0.7546771E-02  0.1180000E+00
      -11   -1    0    0    0    0  0.00000000000E+00  0.00000000000E+00  0.34996269501E-01  0.35000000000E-01  0.51099999109E-03 0. -1.
       11   -1    0    0    0    0 -0.00000000000E+00 -0.00000000000E+00 -0.34996269501E-01  0.35000000000E-01  0.51099999109E-03 0.  1.
       22    1    1    2    0    0 -0.90940051570E-07  0.20721316613E-06  0.11862257923E-05  0.12076170831E-05  0.00000000000E+00 0. -1.
       22    1    1    2    0    0 -0.15289551074E-02  0.38957122941E-02  0.34747680362E-01  0.34998793815E-01  0.00000000000E+00 0. -1.
       22    1    1    2    0    0  0.15290460474E-02 -0.38959195073E-02 -0.34748866588E-01  0.34999998568E-01  0.00000000000E+00 0.  1.
</event>
<event>
 5   0  0.2147244E+06  0.9118800E+02  0.7546771E-02  0.1180000E+00
      -11   -1    0    0    0    0  0.00000000000E+00  0.00000000000E+00  0.34996269501E-01  0.35000000000E-01  0.51099999109E-03 0.  1.
       11   -1    0    0    0    0 -0.00000000000E+00 -0.00000000000E+00 -0.34996269501E-01  0.35000000000E-01  0.51099999109E-03 0. -1.
       22    1    1    2    0    0  0.92103100281E-05 -0.27744581498E-04  0.17515767104E-03  0.17758040809E-03  0.00000000000E+00 0.  1.
       22    1    1    2    0    0  0.33017877965E-02  0.13728187320E-02  0.34640123183E-01  0.34824195153E-01  0.00000000000E+00 0.  1.
       22    1    1    2    0    0 -0.33109981065E-02 -0.13450741505E-02 -0.34815280854E-01  0.34998224439E-01  0.00000000000E+00 0. -1.
</event>
<event>
 5   0  0.2147244E+06  0.9118800E+02  0.7546771E-02  0.1180000E+00
      -11   -1    0    0    0    0  0.00000000000E+00  0.00000000000E+00  0.34996269501E-01  0.35000000000E-01  0.51099999109E-03 0. -1.
       11   -1    0    0    0    0 -0.00000000000E+00 -0.00000000000E+00 -0.34996269501E-01  0.35000000000E-01  0.51099999109E-03 0.  1.
       22    1    1    2    0    0 -0.15708352244E-01 -0.14709195148E-01 -0.13169441006E-01  0.25229881659E-01  0.00000000000E+00 0.  1.
       22    1    1    2    0    0 -0.99019346772E-03 -0.30383839926E-03 -0.11422015917E-01  0.11468881745E-01  0.00000000000E+00 0.  1.
       22    1    1    2    0    0  0.16698545712E-01  0.15013033547E-01  0.24591456923E-01  0.33301236596E-01  0.00000000000E+00 0. -1.
</event>
<event>
 5   0  0.2147244E+06  0.9118800E+02  0.7546771E-02  0.1180000E+00
      -11   -1    0    0    0    0  0.00000000000E+00  0.00000000000E+00  0.34996269501E-01  0.35000000000E-01  0.51099999109E-03 0. -1.
       11   -1    0    0    0    0 -0.00000000000E+00 -0.00000000000E+00 -0.34996269501E-01  0.35000000000E-01  0.51099999109E-03 0.  1.
       22    1    1    2    0    0  0.46734504918E-02  0.32762341190E-02 -0.32623246365E-01  0.33118741717E-01  0.00000000000E+00 0.  1.
       22    1    1    2    0    0 -0.16231365030E-02 -0.12741739469E-02 -0.15078334721E-02  0.25557099081E-02  0.00000000000E+00 0. -1.
       22    1    1    2    0    0 -0.30503139887E-02 -0.20020601721E-02  0.34131079838E-01  0.34325548375E-01  0.00000000000E+00 0. -1.
</event>
<event>
 5   0  0.2147244E+06  0.9118800E+02  0.7546771E-02  0.1180000E+00
      -11   -1    0    0    0    0  0.00000000000E+00  0.00000000000E+00  0.34996269501E-01  0.35000000000E-01  0.51099999109E-03 0. -1.
       11   -1    0    0    0    0 -0.00000000000E+00 -0.00000000000E+00 -0.34996269501E-01  0.35000000000E-01  0.51099999109E-03 0.  1.
       22    1    1    2    0    0 -0.15628586549E-02  0.47623412563E-03 -0.77916838271E-03  0.18100910160E-02  0.00000000000E+00 0. -1.
       22    1    1    2    0    0 -0.14375806791E-01 -0.20697136944E-01  0.23046514047E-01  0.34149335400E-01  0.00000000000E+00 0. -1.
       22    1    1    2    0    0  0.15938665446E-01  0.20220902818E-01 -0.22267345664E-01  0.34040573584E-01  0.00000000000E+00 0.  1.
</event>
<event>
 5   0  0.2147244E+06  0.9118800E+02  0.7546771E-02  0.1180000E+00
      -11   -1    0    0    0    0  0.00000000000E+00  0.00000000000E+00  0.34996269501E-01  0.35000000000E-01  0.51099999109E-03 0. -1.
       11   -1    0    0    0    0 -0.00000000000E+00 -0.00000000000E+00 -0.34996269501E-01  0.35000000000E-01  0.51099999109E-03 0.  1.
       22    1    1    2    0    0 -0.22692598671E-01 -0.26396590663E-01 -0.34757884217E-02  0.34983069309E-01  0.00000000000E+00 0.  1.
       22    1    1    2    0    0 -0.49304608776E-05 -0.13634089669E-05  0.32441369406E-04  0.32842210300E-04  0.00000000000E+00 0. -1.
       22    1    1    2    0    0  0.22697529132E-01  0.26397954072E-01  0.34433470523E-02  0.34984088481E-01  0.00000000000E+00 0. -1.
</event>
<event>
 5   0  0.2147244E+06  0.9118800E+02  0.7546771E-02  0.1180000E+00
      -11   -1    0    0    0    0  0.00000000000E+00  0.00000000000E+00  0.34996269501E-01  0.35000000000E-01  0.51099999109E-03 0.  1.
       11   -1    0    0    0    0 -0.00000000000E+00 -0.00000000000E+00 -0.34996269501E-01  0.35000000000E-01  0.51099999109E-03 0. -1.
       22    1    1    2    0    0 -0.81291762613E-02 -0.75055023134E-02  0.33197200620E-01  0.34992430619E-01  0.00000000000E+00 0.  1.
       22    1    1    2    0    0 -0.10840497041E-05 -0.14835527748E-05  0.73602160832E-05  0.75860973753E-05  0.00000000000E+00 0. -1.
       22    1    1    2    0    0  0.81302603110E-02  0.75069858662E-02 -0.33204560836E-01  0.34999983283E-01  0.00000000000E+00 0. -1.
</event>
<event>
 5   0  0.2147244E+06  0.9118800E+02  0.7546771E-02  0.1180000E+00
      -11   -1    0    0    0    0  0.00000000000E+00  0.00000000000E+00  0.34996269501E-01  0.35000000000E-01  0.51099999109E-03 0. -1.
       11   -1    0    0    0    0 -0.00000000000E+00 -0.00000000000E+00 -0.34996269501E-01  0.35000000000E-01  0.51099999109E-03 0.  1.
       22    1    1    2    0    0 -0.12291231708E-02  0.30401618812E-02  0.34695441058E-01  0.34850063963E-01  0.00000000000E+00 0. -1.
       22    1    1    2    0    0 -0.11775596752E-02 -0.87466136137E-04 -0.17397740450E-01  0.17437765622E-01  0.00000000000E+00 0.  1.
       22    1    1    2    0    0  0.24066828460E-02 -0.29526957450E-02 -0.17297700608E-01  0.17712170415E-01  0.00000000000E+00 0.  1.
</event>
<event>
 5   0  0.2147244E+06  0.9118800E+02  0.7546771E-02  0.1180000E+00
      -11   -1    0    0    0    0  0.00000000000E+00  0.00000000000E+00  0.34996269501E-01  0.35000000000E-01  0.51099999109E-03 0.  1.
       11   -1    0    0    0    0 -0.00000000000E+00 -0.00000000000E+00 -0.34996269501E-01  0.35000000000E-01  0.51099999109E-03 0. -1.
       22    1    1    2    0    0  0.75919585213E-04  0.95080451197E-04 -0.90019681923E-04  0.15135263048E-03  0.00000000000E+00 0. -1.
       22    1    1    2    0    0 -0.53023888777E-02 -0.17487128626E-02  0.34528298693E-01  0.34976802815E-01  0.00000000000E+00 0.  1.
       22    1    1    2    0    0  0.52264692924E-02  0.16536324114E-02 -0.34438279011E-01  0.34871844555E-01  0.00000000000E+00 0. -1.
</event>
<event>
 5   0  0.2147244E+06  0.9118800E+02  0.7546771E-02  0.1180000E+00
      -11   -1    0    0    0    0  0.00000000000E+00  0.00000000000E+00  0.34996269501E-01  0.35000000000E-01  0.51099999109E-03 0. -1.
       11   -1    0    0    0    0 -0.00000000000E+00 -0.00000000000E+00 -0.34996269501E-01  0.35000000000E-01  0.51099999109E-03 0.  1.
       22    1    1    2    0    0 -0.13634737180E-04 -0.29160441901E-05  0.60146881848E-04  0.61741855882E-04  0.00000000000E+00 0. -1.
       22    1    1    2    0    0  0.19111953596E-02 -0.23804851242E-03 -0.34946487055E-01  0.34999518458E-01  0.00000000000E+00 0.  1.
       22    1    1    2    0    0 -0.18975606224E-02  0.24096455661E-03  0.34886340173E-01  0.34938739687E-01  0.00000000000E+00 0. -1.
</event>
<event>
 5   0  0.2147244E+06  0.9118800E+02  0.7546771E-02  0.1180000E+00
      -11   -1    0    0    0    0  0.00000000000E+00  0.00000000000E+00  0.34996269501E-01  0.35000000000E-01  0.51099999109E-03 0. -1.
       11   -1    0    0    0    0 -0.00000000000E+00 -0.00000000000E+00 -0.34996269501E-01  0.35000000000E-01  0.51099999109E-03 0.  1.
       22    1    1    2    0    0 -0.56159657041E-02  0.54132322562E-02 -0.33975534449E-01  0.34859419033E-01  0.00000000000E+00 0.  1.
       22    1    1    2    0    0 -0.20832246247E-04 -0.49019126095E-03  0.10270502715E-01  0.10282215105E-01  0.00000000000E+00 0.  1.
       22    1    1    2    0    0  0.56367979503E-02 -0.49230409953E-02  0.23705031735E-01  0.24858365862E-01  0.00000000000E+00 0. -1.
</event>
<event>
 5   0  0.2147244E+06  0.9118800E+02  0.7546771E-02  0.1180000E+00
      -11   -1    0    0    0    0  0.00000000000E+00  0.00000000000E+00  0.34996269501E-01  0.35000000000E-01  0.51099999109E-03 0.  1.
       11   -1    0    0    0    0 -0.00000000000E+00 -0.00000000000E+00 -0.34996269501E-01  0.35000000000E-01  0.51099999109E-03 0.  1.
       22    1    1    2    0    0 -0.17815747042E-02  0.56547090592E-03  0.29576740886E-01  0.29635744755E-01  0.00000000000E+00 0.  1.
       22    1    1    2    0    0 -0.46272670781E-02 -0.69494595619E-03 -0.32839725824E-01  0.33171405498E-01  0.00000000000E+00 0.  1.
       22    1    1    2    0    0  0.64088417823E-02  0.12947505027E-03  0.32629849383E-02  0.71928497473E-02  0.00000000000E+00 0. -1.
</event>
<event>
 5   0  0.2147244E+06  0.9118800E+02  0.7546771E-02  0.1180000E+00
      -11   -1    0    0    0    0  0.00000000000E+00  0.00000000000E+00  0.34996269501E-01  0.35000000000E-01  0.51099999109E-03 0.  1.
       11   -1    0    0    0    0 -0.00000000000E+00 -0.00000000000E+00 -0.34996269501E-01  0.35000000000E-01  0.51099999109E-03 0. -1.
       22    1    1    2    0    0 -0.25091068837E-02  0.81789018127E-04 -0.34909849066E-01  0.34999998123E-01  0.00000000000E+00 0. -1.
       22    1    1    2    0    0  0.13771827958E-08 -0.53378868764E-07  0.56249503443E-06  0.56502377297E-06  0.00000000000E+00 0.  1.
       22    1    1    2    0    0  0.25091055066E-02 -0.81735639258E-04  0.34909286571E-01  0.34999436853E-01  0.00000000000E+00 0.  1.
</event>
<event>
 5   0  0.2147244E+06  0.9118800E+02  0.7546771E-02  0.1180000E+00
      -11   -1    0    0    0    0  0.00000000000E+00  0.00000000000E+00  0.34996269501E-01  0.35000000000E-01  0.51099999109E-03 0. -1.
       11   -1    0    0    0    0 -0.00000000000E+00 -0.00000000000E+00 -0.34996269501E-01  0.35000000000E-01  0.51099999109E-03 0.  1.
       22    1    1    2    0    0  0.95044486064E-02  0.12364763590E-02 -0.23811862011E-01  0.25668427874E-01  0.00000000000E+00 0.  1.
       22    1    1    2    0    0 -0.14906821012E-01  0.46366306677E-02 -0.33970618857E-02  0.15976598076E-01  0.00000000000E+00 0.  1.
       22    1    1    2    0    0  0.54023724059E-02 -0.58731070268E-02  0.27208923896E-01  0.28354974050E-01  0.00000000000E+00 0. -1.
</event>
<event>
 5   0  0.2147244E+06  0.9118800E+02  0.7546771E-02  0.1180000E+00
      -11   -1    0    0    0    0  0.00000000000E+00  0.00000000000E+00  0.34996269501E-01  0.35000000000E-01  0.51099999109E-03 0.  1.
       11   -1    0    0    0    0 -0.00000000000E+00 -0.00000000000E+00 -0.34996269501E-01  0.35000000000E-01  0.51099999109E-03 0.  1.
       22    1    1    2    0    0 -0.23127879571E-07 -0.86777024972E-08  0.44183195298E-07  0.50619720277E-07  0.00000000000E+00 0.  1.
       22    1    1    2    0    0 -0.17208503627E-03  0.11382224757E-03 -0.34999388608E-01  0.34999996739E-01  0.00000000000E+00 0.  1.
       22    1    1    2    0    0  0.17210816415E-03 -0.11381356987E-03  0.34999344425E-01  0.34999952642E-01  0.00000000000E+00 0.  1.
</event>
<event>
 5   0  0.2147244E+06  0.9118800E+02  0.7546771E-02  0.1180000E+00
      -11   -1    0    0    0    0  0.00000000000E+00  0.00000000000E+00  0.34996269501E-01  0.35000000000E-01  0.51099999109E-03 0. -1.
       11   -1    0    0    0    0 -0.00000000000E+00 -0.00000000000E+00 -0.34996269501E-01  0.35000000000E-01  0.51099999109E-03 0.  1.
       22    1    1    2    0    0 -0.11731470695E-02 -0.92308391238E-03  0.34967974192E-01  0.34999822529E-01  0.00000000000E+00 0. -1.
       22    1    1    2    0    0  0.17838089438E-07 -0.46041931865E-07  0.17380266981E-06  0.18068044984E-06  0.00000000000E+00 0. -1.
       22    1    1    2    0    0  0.11731292315E-02  0.92312995432E-03 -0.34968147995E-01  0.34999996790E-01  0.00000000000E+00 0.  1.
</event>
<event>
 5   0  0.2147244E+06  0.9118800E+02  0.7546771E-02  0.1180000E+00
      -11   -1    0    0    0    0  0.00000000000E+00  0.00000000000E+00  0.34996269501E-01  0.35000000000E-01  0.51099999109E-03 0. -1.
       11   -1    0    0    0    0 -0.00000000000E+00 -0.00000000000E+00 -0.34996269501E-01  0.35000000000E-01  0.51099999109E-03 0.  1.
       22    1    1    2    0    0 -0.23608550557E-07  0.10293048868E-06  0.34570718748E-05  0.34586844315E-05  0.00000000000E+00 0.  1.
       22    1    1    2    0    0 -0.71631083735E-03 -0.45436324129E-03  0.34986261285E-01  0.34996543056E-01  0.00000000000E+00 0. -1.
       22    1    1    2    0    0  0.71633444590E-03  0.45426031080E-03 -0.34989718357E-01  0.34999998259E-01  0.00000000000E+00 0.  1.
</event>
<event>
 5   0  0.2147244E+06  0.9118800E+02  0.7546771E-02  0.1180000E+00
      -11   -1    0    0    0    0  0.00000000000E+00  0.00000000000E+00  0.34996269501E-01  0.35000000000E-01  0.51099999109E-03 0. -1.
       11   -1    0    0    0    0 -0.00000000000E+00 -0.00000000000E+00 -0.34996269501E-01  0.35000000000E-01  0.51099999109E-03 0.  1.
       22    1    1    2    0    0 -0.74256850808E-06 -0.17444025113E-05  0.49666759704E-05  0.53162221836E-05  0.00000000000E+00 0.  1.
       22    1    1    2    0    0 -0.34336835518E-02  0.44771500493E-02 -0.34542085863E-01  0.34999867873E-01  0.00000000000E+00 0.  1.
       22    1    1    2    0    0  0.34344261203E-02 -0.44754056468E-02  0.34537119187E-01  0.34994815905E-01  0.00000000000E+00 0. -1.
</event>
<event>
 5   0  0.2147244E+06  0.9118800E+02  0.7546771E-02  0.1180000E+00
      -11   -1    0    0    0    0  0.00000000000E+00  0.00000000000E+00  0.34996269501E-01  0.35000000000E-01  0.51099999109E-03 0. -1.
       11   -1    0    0    0    0 -0.00000000000E+00 -0.00000000000E+00 -0.34996269501E-01  0.35000000000E-01  0.51099999109E-03 0.  1.
       22    1    1    2    0    0 -0.22286521399E-02 -0.16293528485E-02 -0.34890811328E-01  0.34999862802E-01  0.00000000000E+00 0.  1.
       22    1    1    2    0    0  0.22057650507E-02  0.15915185034E-02  0.34320598380E-01  0.34428212323E-01  0.00000000000E+00 0. -1.
       22    1    1    2    0    0  0.22887089145E-04  0.37834345095E-04  0.57021294751E-03  0.57192487446E-03  0.00000000000E+00 0.  1.
</event>
<event>
 5   0  0.2147244E+06  0.9118800E+02  0.7546771E-02  0.1180000E+00
      -11   -1    0    0    0    0  0.00000000000E+00  0.00000000000E+00  0.34996269501E-01  0.35000000000E-01  0.51099999109E-03 0.  1.
       11   -1    0    0    0    0 -0.00000000000E+00 -0.00000000000E+00 -0.34996269501E-01  0.35000000000E-01  0.51099999109E-03 0. -1.
       22    1    1    2    0    0 -0.31800073234E-01  0.29095920952E-02  0.14327081774E-01  0.34999652227E-01  0.00000000000E+00 0.  1.
       22    1    1    2    0    0 -0.11264545904E-07  0.61022153405E-07  0.47982374569E-06  0.48381961527E-06  0.00000000000E+00 0. -1.
       22    1    1    2    0    0  0.31800084499E-01 -0.29096531174E-02 -0.14327561598E-01  0.34999863953E-01  0.00000000000E+00 0. -1.
</event>
<event>
 5   0  0.2147244E+06  0.9118800E+02  0.7546771E-02  0.1180000E+00
      -11   -1    0    0    0    0  0.00000000000E+00  0.00000000000E+00  0.34996269501E-01  0.35000000000E-01  0.51099999109E-03 0. -1.
       11   -1    0    0    0    0 -0.00000000000E+00 -0.00000000000E+00 -0.34996269501E-01  0.35000000000E-01  0.51099999109E-03 0.  1.
       22    1    1    2    0    0  0.71099260428E-03  0.38868190041E-02  0.34752671389E-01  0.34976578465E-01  0.00000000000E+00 0. -1.
       22    1    1    2    0    0 -0.70459289234E-03 -0.38886097527E-02 -0.34775661100E-01  0.34999490595E-01  0.00000000000E+00 0.  1.
       22    1    1    2    0    0 -0.63997119363E-05  0.17907486745E-05  0.22989711075E-04  0.23930940412E-04  0.00000000000E+00 0. -1.
</event>
<event>
 5   0  0.2147244E+06  0.9118800E+02  0.7546771E-02  0.1180000E+00
      -11   -1    0    0    0    0  0.00000000000E+00  0.00000000000E+00  0.34996269501E-01  0.35000000000E-01  0.51099999109E-03 0. -1.
       11   -1    0    0    0    0 -0.00000000000E+00 -0.00000000000E+00 -0.34996269501E-01  0.35000000000E-01  0.51099999109E-03 0.  1.
       22    1    1    2    0    0  0.37273302869E-02 -0.11088370555E-01 -0.32987194296E-01  0.34999999146E-01  0.00000000000E+00 0.  1.
       22    1    1    2    0    0  0.40623393039E-08  0.12702540822E-08  0.61845603978E-08  0.75076583145E-08  0.00000000000E+00 0. -1.
       22    1    1    2    0    0 -0.37273343492E-02  0.11088369285E-01  0.32987188112E-01  0.34999993347E-01  0.00000000000E+00 0. -1.
</event>
<event>
 5   0  0.2147244E+06  0.9118800E+02  0.7546771E-02  0.1180000E+00
      -11   -1    0    0    0    0  0.00000000000E+00  0.00000000000E+00  0.34996269501E-01  0.35000000000E-01  0.51099999109E-03 0.  1.
       11   -1    0    0    0    0 -0.00000000000E+00 -0.00000000000E+00 -0.34996269501E-01  0.35000000000E-01  0.51099999109E-03 0. -1.
       22    1    1    2    0    0 -0.12099119524E-02  0.29159170533E-03 -0.34942035288E-01  0.34964192294E-01  0.00000000000E+00 0. -1.
       22    1    1    2    0    0  0.75899410834E-04  0.62026281292E-04  0.28512164124E-04  0.10208292531E-03  0.00000000000E+00 0. -1.
       22    1    1    2    0    0  0.11340125416E-02 -0.35361798662E-03  0.34913523124E-01  0.34933724781E-01  0.00000000000E+00 0.  1.
</event>
<event>
 5   0  0.2147244E+06  0.9118800E+02  0.7546771E-02  0.1180000E+00
      -11   -1    0    0    0    0  0.00000000000E+00  0.00000000000E+00  0.34996269501E-01  0.35000000000E-01  0.51099999109E-03 0. -1.
       11   -1    0    0    0    0 -0.00000000000E+00 -0.00000000000E+00 -0.34996269501E-01  0.35000000000E-01  0.51099999109E-03 0.  1.
       22    1    1    2    0    0  0.25919185332E-02 -0.20180680295E-02  0.34818514830E-01  0.34973127044E-01  0.00000000000E+00 0. -1.
       22    1    1    2    0    0 -0.10009781678E-02  0.90066220284E-03 -0.23807078090E-01  0.23845127739E-01  0.00000000000E+00 0.  1.
       22    1    1    2    0    0 -0.15909403654E-02  0.11174058266E-02 -0.11011436740E-01  0.11181745218E-01  0.00000000000E+00 0.  1.
</event>
<event>
 5   0  0.2147244E+06  0.9118800E+02  0.7546771E-02  0.1180000E+00
      -11   -1    0    0    0    0  0.00000000000E+00  0.00000000000E+00  0.34996269501E-01  0.35000000000E-01  0.51099999109E-03 0. -1.
       11   -1    0    0    0    0 -0.00000000000E+00 -0.00000000000E+00 -0.34996269501E-01  0.35000000000E-01  0.51099999109E-03 0.  1.
       22    1    1    2    0    0  0.10922132279E-02  0.93872281931E-02 -0.32728499478E-01  0.34065637539E-01  0.00000000000E+00 0.  1.
       22    1    1    2    0    0 -0.71079509096E-04 -0.74871595546E-02  0.74446526937E-02  0.10558667729E-01  0.00000000000E+00 0. -1.
       22    1    1    2    0    0 -0.10211337188E-02 -0.19000686385E-02  0.25283846784E-01  0.25375694731E-01  0.00000000000E+00 0. -1.
</event>
<event>
 5   0  0.2147244E+06  0.9118800E+02  0.7546771E-02  0.1180000E+00
      -11   -1    0    0    0    0  0.00000000000E+00  0.00000000000E+00  0.34996269501E-01  0.35000000000E-01  0.51099999109E-03 0. -1.
       11   -1    0    0    0    0 -0.00000000000E+00 -0.00000000000E+00 -0.34996269501E-01  0.35000000000E-01  0.51099999109E-03 0.  1.
       22    1    1    2    0    0 -0.10942723785E-02 -0.21572950436E-05  0.34982569042E-01  0.34999679619E-01  0.00000000000E+00 0. -1.
       22    1    1    2    0    0  0.10944382674E-02  0.16212162232E-05 -0.34982639157E-01  0.34999754858E-01  0.00000000000E+00 0.  1.
       22    1    1    2    0    0 -0.16588890290E-06  0.53607882037E-06  0.70114864203E-07  0.56552252293E-06  0.00000000000E+00 0.  1.
</event>
<event>
 5   0  0.2147244E+06  0.9118800E+02  0.7546771E-02  0.1180000E+00
      -11   -1    0    0    0    0  0.00000000000E+00  0.00000000000E+00  0.34996269501E-01  0.35000000000E-01  0.51099999109E-03 0. -1.
       11   -1    0    0    0    0 -0.00000000000E+00 -0.00000000000E+00 -0.34996269501E-01  0.35000000000E-01  0.51099999109E-03 0.  1.
       22    1    1    2    0    0 -0.74801933297E-03  0.86084067108E-03 -0.34981345843E-01  0.34999930522E-01  0.00000000000E+00 0.  1.
       22    1    1    2    0    0  0.74812887726E-03 -0.86044648564E-03  0.34980845802E-01  0.34999423395E-01  0.00000000000E+00 0. -1.
       22    1    1    2    0    0 -0.10954429232E-06 -0.39418544045E-06  0.50004107713E-06  0.64608296082E-06  0.00000000000E+00 0. -1.
</event>
<event>
 5   0  0.2147244E+06  0.9118800E+02  0.7546771E-02  0.1180000E+00
      -11   -1    0    0    0    0  0.00000000000E+00  0.00000000000E+00  0.34996269501E-01  0.35000000000E-01  0.51099999109E-03 0.  1.
       11   -1    0    0    0    0 -0.00000000000E+00 -0.00000000000E+00 -0.34996269501E-01  0.35000000000E-01  0.51099999109E-03 0. -1.
       22    1    1    2    0    0  0.11979272610E-01 -0.21573412252E-01 -0.24821007939E-01  0.34999964622E-01  0.00000000000E+00 0.  1.
       22    1    1    2    0    0 -0.11979120863E-01  0.21572615612E-01  0.24820581078E-01  0.34999118932E-01  0.00000000000E+00 0. -1.
       22    1    1    2    0    0 -0.15174697057E-06  0.79664036748E-06  0.42686029654E-06  0.91644570540E-06  0.00000000000E+00 0.  1.
</event>
<event>
 5   0  0.2147244E+06  0.9118800E+02  0.7546771E-02  0.1180000E+00
      -11   -1    0    0    0    0  0.00000000000E+00  0.00000000000E+00  0.34996269501E-01  0.35000000000E-01  0.51099999109E-03 0.  1.
       11   -1    0    0    0    0 -0.00000000000E+00 -0.00000000000E+00 -0.34996269501E-01  0.35000000000E-01  0.51099999109E-03 0.  1.
       22    1    1    2    0    0 -0.76910962604E-03 -0.15840707484E-03  0.34968603218E-01  0.34977418908E-01  0.00000000000E+00 0.  1.
       22    1    1    2    0    0  0.78708459915E-03  0.15247419542E-03 -0.34987000528E-01  0.34996184885E-01  0.00000000000E+00 0.  1.
       22    1    1    2    0    0 -0.17974973109E-04  0.59328794270E-05  0.18397309974E-04  0.26396206751E-04  0.00000000000E+00 0. -1.
</event>
<event>
 5   0  0.2147244E+06  0.9118800E+02  0.7546771E-02  0.1180000E+00
      -11   -1    0    0    0    0  0.00000000000E+00  0.00000000000E+00  0.34996269501E-01  0.35000000000E-01  0.51099999109E-03 0.  1.
       11   -1    0    0    0    0 -0.00000000000E+00 -0.00000000000E+00 -0.34996269501E-01  0.35000000000E-01  0.51099999109E-03 0. -1.
       22    1    1    2    0    0  0.45315509978E-03  0.54811795405E-03 -0.14041433448E-03  0.72491311296E-03  0.00000000000E+00 0.  1.
       22    1    1    2    0    0 -0.24768359115E-02 -0.10439896087E-02  0.34624220520E-01  0.34728392953E-01  0.00000000000E+00 0.  1.
       22    1    1    2    0    0  0.20236808117E-02  0.49587165462E-03 -0.34483806186E-01  0.34546693934E-01  0.00000000000E+00 0. -1.
</event>
<event>
 5   0  0.2147244E+06  0.9118800E+02  0.7546771E-02  0.1180000E+00
      -11   -1    0    0    0    0  0.00000000000E+00  0.00000000000E+00  0.34996269501E-01  0.35000000000E-01  0.51099999109E-03 0. -1.
       11   -1    0    0    0    0 -0.00000000000E+00 -0.00000000000E+00 -0.34996269501E-01  0.35000000000E-01  0.51099999109E-03 0.  1.
       22    1    1    2    0    0  0.15945285544E-03  0.92670172884E-03  0.34986728716E-01  0.34999362673E-01  0.00000000000E+00 0. -1.
       22    1    1    2    0    0 -0.15979224193E-03 -0.92635981709E-03 -0.34987279401E-01  0.34999905657E-01  0.00000000000E+00 0.  1.
       22    1    1    2    0    0  0.33938649484E-06 -0.34191174946E-06  0.55068551846E-06  0.73167026559E-06  0.00000000000E+00 0. -1.
</event>
<event>
 5   0  0.2147244E+06  0.9118800E+02  0.7546771E-02  0.1180000E+00
      -11   -1    0    0    0    0  0.00000000000E+00  0.00000000000E+00  0.34996269501E-01  0.35000000000E-01  0.51099999109E-03 0.  1.
       11   -1    0    0    0    0 -0.00000000000E+00 -0.00000000000E+00 -0.34996269501E-01  0.35000000000E-01  0.51099999109E-03 0. -1.
       22    1    1    2    0    0 -0.11339750931E-05 -0.12141428997E-05  0.25762815777E-05  0.30654965765E-05  0.00000000000E+00 0. -1.
       22    1    1    2    0    0 -0.26975172905E-01 -0.13975379336E-01  0.17373232588E-01  0.34997148332E-01  0.00000000000E+00 0. -1.
       22    1    1    2    0    0  0.26976306880E-01  0.13976593479E-01 -0.17375808869E-01  0.34999786171E-01  0.00000000000E+00 0.  1.
</event>
<event>
 5   0  0.2147244E+06  0.9118800E+02  0.7546771E-02  0.1180000E+00
      -11   -1    0    0    0    0  0.00000000000E+00  0.00000000000E+00  0.34996269501E-01  0.35000000000E-01  0.51099999109E-03 0.  1.
       11   -1    0    0    0    0 -0.00000000000E+00 -0.00000000000E+00 -0.34996269501E-01  0.35000000000E-01  0.51099999109E-03 0. -1.
       22    1    1    2    0    0 -0.26411234301E-09  0.62373203605E-09  0.96025548465E-09  0.11751117301E-08  0.00000000000E+00 0.  1.
       22    1    1    2    0    0  0.20217205519E-01  0.48255814879E-03  0.28566268134E-01  0.34999999093E-01  0.00000000000E+00 0.  1.
       22    1    1    2    0    0 -0.20217205255E-01 -0.48255877252E-03 -0.28566269094E-01  0.34999999732E-01  0.00000000000E+00 0. -1.
</event>
<event>
 5   0  0.2147244E+06  0.9118800E+02  0.7546771E-02  0.1180000E+00
      -11   -1    0    0    0    0  0.00000000000E+00  0.00000000000E+00  0.34996269501E-01  0.35000000000E-01  0.51099999109E-03 0. -1.
       11   -1    0    0    0    0 -0.00000000000E+00 -0.00000000000E+00 -0.34996269501E-01  0.35000000000E-01  0.51099999109E-03 0. -1.
       22    1    1    2    0    0  0.31402364841E-07 -0.63384271511E-07  0.21613585925E-06  0.22741676290E-06  0.00000000000E+00 0. -1.
       22    1    1    2    0    0  0.35493587833E-03  0.12194717600E-03  0.34997765959E-01  0.34999778181E-01  0.00000000000E+00 0. -1.
       22    1    1    2    0    0 -0.35496728070E-03 -0.12188379173E-03 -0.34997982095E-01  0.34999994402E-01  0.00000000000E+00 0. -1.
</event>
<event>
 5   0  0.2147244E+06  0.9118800E+02  0.7546771E-02  0.1180000E+00
      -11   -1    0    0    0    0  0.00000000000E+00  0.00000000000E+00  0.34996269501E-01  0.35000000000E-01  0.51099999109E-03 0.  1.
       11   -1    0    0    0    0 -0.00000000000E+00 -0.00000000000E+00 -0.34996269501E-01  0.35000000000E-01  0.51099999109E-03 0. -1.
       22    1    1    2    0    0 -0.86665715643E-06  0.19621497976E-05  0.12433261491E-05  0.24793116722E-05  0.00000000000E+00 0.  1.
       22    1    1    2    0    0  0.17799586802E-01  0.17831582646E-03  0.30133598294E-01  0.34998440437E-01  0.00000000000E+00 0.  1.
       22    1    1    2    0    0 -0.17798720145E-01 -0.18027797625E-03 -0.30134841621E-01  0.34999080251E-01  0.00000000000E+00 0. -1.
</event>
<event>
 5   0  0.2147244E+06  0.9118800E+02  0.7546771E-02  0.1180000E+00
      -11   -1    0    0    0    0  0.00000000000E+00  0.00000000000E+00  0.34996269501E-01  0.35000000000E-01  0.51099999109E-03 0. -1.
       11   -1    0    0    0    0 -0.00000000000E+00 -0.00000000000E+00 -0.34996269501E-01  0.35000000000E-01  0.51099999109E-03 0.  1.
       22    1    1    2    0    0 -0.54605674631E-02  0.30660509261E-02  0.34434930800E-01  0.34999756063E-01  0.00000000000E+00 0. -1.
       22    1    1    2    0    0 -0.31733567388E-07 -0.18455596533E-07  0.24284979874E-06  0.24560873985E-06  0.00000000000E+00 0. -1.
       22    1    1    2    0    0  0.54605991967E-02 -0.30660324705E-02 -0.34435173649E-01  0.34999998328E-01  0.00000000000E+00 0.  1.
</event>
<event>
 5   0  0.2147244E+06  0.9118800E+02  0.7546771E-02  0.1180000E+00
      -11   -1    0    0    0    0  0.00000000000E+00  0.00000000000E+00  0.34996269501E-01  0.35000000000E-01  0.51099999109E-03 0.  1.
       11   -1    0    0    0    0 -0.00000000000E+00 -0.00000000000E+00 -0.34996269501E-01  0.35000000000E-01  0.51099999109E-03 0. -1.
       22    1    1    2    0    0 -0.40597963714E-02  0.35928266139E-02 -0.34413468805E-01  0.34837869981E-01  0.00000000000E+00 0. -1.
       22    1    1    2    0    0 -0.88539927313E-03 -0.64259788473E-03  0.24368288152E-02  0.26711418137E-02  0.00000000000E+00 0. -1.
       22    1    1    2    0    0  0.49451956445E-02 -0.29502287291E-02  0.31976639990E-01  0.32490988205E-01  0.00000000000E+00 0.  1.
</event>
<event>
 5   0  0.2147244E+06  0.9118800E+02  0.7546771E-02  0.1180000E+00
      -11   -1    0    0    0    0  0.00000000000E+00  0.00000000000E+00  0.34996269501E-01  0.35000000000E-01  0.51099999109E-03 0. -1.
       11   -1    0    0    0    0 -0.00000000000E+00 -0.00000000000E+00 -0.34996269501E-01  0.35000000000E-01  0.51099999109E-03 0.  1.
       22    1    1    2    0    0  0.58742314414E-02 -0.26600735076E-02 -0.33783858293E-01  0.34393773670E-01  0.00000000000E+00 0.  1.
       22    1    1    2    0    0  0.91883149086E-03 -0.76815980573E-03  0.25458656508E-03  0.12243917326E-02  0.00000000000E+00 0. -1.
       22    1    1    2    0    0 -0.67930629322E-02  0.34282333134E-02  0.33529271728E-01  0.34381834597E-01  0.00000000000E+00 0. -1.
</event>
<event>
 5   0  0.2147244E+06  0.9118800E+02  0.7546771E-02  0.1180000E+00
      -11   -1    0    0    0    0  0.00000000000E+00  0.00000000000E+00  0.34996269501E-01  0.35000000000E-01  0.51099999109E-03 0.  1.
       11   -1    0    0    0    0 -0.00000000000E+00 -0.00000000000E+00 -0.34996269501E-01  0.35000000000E-01  0.51099999109E-03 0. -1.
       22    1    1    2    0    0 -0.53625053940E-02  0.56252615248E-02 -0.31696336956E-01  0.32635223422E-01  0.00000000000E+00 0. -1.
       22    1    1    2    0    0  0.66068917409E-02 -0.68237545783E-02  0.33527682874E-01  0.34847096922E-01  0.00000000000E+00 0.  1.
       22    1    1    2    0    0 -0.12443863470E-02  0.11984930535E-02 -0.18313459176E-02  0.25176796559E-02  0.00000000000E+00 0. -1.
</event>
<event>
 5   0  0.2147244E+06  0.9118800E+02  0.7546771E-02  0.1180000E+00
      -11   -1    0    0    0    0  0.00000000000E+00  0.00000000000E+00  0.34996269501E-01  0.35000000000E-01  0.51099999109E-03 0.  1.
       11   -1    0    0    0    0 -0.00000000000E+00 -0.00000000000E+00 -0.34996269501E-01  0.35000000000E-01  0.51099999109E-03 0. -1.
       22    1    1    2    0    0  0.35930408452E-04 -0.20163074702E-04  0.22174193087E-04  0.46789300829E-04  0.00000000000E+00 0.  1.
       22    1    1    2    0    0  0.17103724206E-01 -0.16497659973E-01  0.25634674084E-01  0.34954923569E-01  0.00000000000E+00 0.  1.
       22    1    1    2    0    0 -0.17139654614E-01  0.16517823048E-01 -0.25656848278E-01  0.34998287130E-01  0.00000000000E+00 0. -1.
</event>
<event>
 5   0  0.2147244E+06  0.9118800E+02  0.7546771E-02  0.1180000E+00
      -11   -1    0    0    0    0  0.00000000000E+00  0.00000000000E+00  0.34996269501E-01  0.35000000000E-01  0.51099999109E-03 0.  1.
       11   -1    0    0    0    0 -0.00000000000E+00 -0.00000000000E+00 -0.34996269501E-01  0.35000000000E-01  0.51099999109E-03 0. -1.
       22    1    1    2    0    0 -0.18496581895E-02 -0.67901316401E-03  0.34918083716E-01  0.34973630991E-01  0.00000000000E+00 0.  1.
       22    1    1    2    0    0 -0.18580226131E-05 -0.66326624959E-06  0.26297369868E-04  0.26371269066E-04  0.00000000000E+00 0. -1.
       22    1    1    2    0    0  0.18515162121E-02  0.67967643026E-03 -0.34944381086E-01  0.34999997740E-01  0.00000000000E+00 0. -1.
</event>
<event>
 5   0  0.2147244E+06  0.9118800E+02  0.7546771E-02  0.1180000E+00
      -11   -1    0    0    0    0  0.00000000000E+00  0.00000000000E+00  0.34996269501E-01  0.35000000000E-01  0.51099999109E-03 0. -1.
       11   -1    0    0    0    0 -0.00000000000E+00 -0.00000000000E+00 -0.34996269501E-01  0.35000000000E-01  0.51099999109E-03 0.  1.
       22    1    1    2    0    0 -0.29648136702E-01 -0.11382581693E-01 -0.55350896475E-02  0.32236817357E-01  0.00000000000E+00 0.  1.
       22    1    1    2    0    0  0.22019236750E-01  0.10970201482E-01 -0.46447464526E-02  0.25035290636E-01  0.00000000000E+00 0. -1.
       22    1    1    2    0    0  0.76288999524E-02  0.41238021034E-03  0.10179836100E-01  0.12727892007E-01  0.00000000000E+00 0. -1.
</event>
<event>
 5   0  0.2147244E+06  0.9118800E+02  0.7546771E-02  0.1180000E+00
      -11   -1    0    0    0    0  0.00000000000E+00  0.00000000000E+00  0.34996269501E-01  0.35000000000E-01  0.51099999109E-03 0. -1.
       11   -1    0    0    0    0 -0.00000000000E+00 -0.00000000000E+00 -0.34996269501E-01  0.35000000000E-01  0.51099999109E-03 0.  1.
       22    1    1    2    0    0  0.60996134421E-02  0.29569113280E-02  0.34337296731E-01  0.34999979365E-01  0.00000000000E+00 0. -1.
       22    1    1    2    0    0 -0.27651870740E-08 -0.19022429445E-08  0.21022523150E-07  0.21288759179E-07  0.00000000000E+00 0. -1.
       22    1    1    2    0    0 -0.60996106769E-02 -0.29569094257E-02 -0.34337317753E-01  0.34999999347E-01  0.00000000000E+00 0.  1.
</event>
<event>
 5   0  0.2147244E+06  0.9118800E+02  0.7546771E-02  0.1180000E+00
      -11   -1    0    0    0    0  0.00000000000E+00  0.00000000000E+00  0.34996269501E-01  0.35000000000E-01  0.51099999109E-03 0. -1.
       11   -1    0    0    0    0 -0.00000000000E+00 -0.00000000000E+00 -0.34996269501E-01  0.35000000000E-01  0.51099999109E-03 0.  1.
       22    1    1    2    0    0  0.22228291479E-02  0.31085207690E-02 -0.34748551165E-01  0.34958055994E-01  0.00000000000E+00 0.  1.
       22    1    1    2    0    0  0.50499648043E-03 -0.78424247984E-03  0.63437872510E-02  0.64119961321E-02  0.00000000000E+00 0. -1.
       22    1    1    2    0    0 -0.27278256283E-02 -0.23242782891E-02  0.28404763914E-01  0.28629947874E-01  0.00000000000E+00 0. -1.
</event>
<event>
 5   0  0.2147244E+06  0.9118800E+02  0.7546771E-02  0.1180000E+00
      -11   -1    0    0    0    0  0.00000000000E+00  0.00000000000E+00  0.34996269501E-01  0.35000000000E-01  0.51099999109E-03 0. -1.
       11   -1    0    0    0    0 -0.00000000000E+00 -0.00000000000E+00 -0.34996269501E-01  0.35000000000E-01  0.51099999109E-03 0.  1.
       22    1    1    2    0    0 -0.64065846026E-04 -0.79579143500E-02 -0.34033229554E-01  0.34951297817E-01  0.00000000000E+00 0.  1.
       22    1    1    2    0    0  0.45478943620E-04  0.81319799381E-02  0.33748689832E-01  0.34714625613E-01  0.00000000000E+00 0. -1.
       22    1    1    2    0    0  0.18586902406E-04 -0.17406558805E-03  0.28453972111E-03  0.33407657023E-03  0.00000000000E+00 0. -1.
</event>
<event>
 5   0  0.2147244E+06  0.9118800E+02  0.7546771E-02  0.1180000E+00
      -11   -1    0    0    0    0  0.00000000000E+00  0.00000000000E+00  0.34996269501E-01  0.35000000000E-01  0.51099999109E-03 0.  1.
       11   -1    0    0    0    0 -0.00000000000E+00 -0.00000000000E+00 -0.34996269501E-01  0.35000000000E-01  0.51099999109E-03 0. -1.
       22    1    1    2    0    0  0.66852169835E-03  0.20354569569E-01 -0.28383541973E-01  0.34933950228E-01  0.00000000000E+00 0. -1.
       22    1    1    2    0    0 -0.37911545429E-04  0.85729432125E-04  0.37381079033E-03  0.38538464912E-03  0.00000000000E+00 0.  1.
       22    1    1    2    0    0 -0.63061015292E-03 -0.20440299001E-01  0.28009731183E-01  0.34680665123E-01  0.00000000000E+00 0.  1.
</event>
<event>
 5   0  0.2147244E+06  0.9118800E+02  0.7546771E-02  0.1180000E+00
      -11   -1    0    0    0    0  0.00000000000E+00  0.00000000000E+00  0.34996269501E-01  0.35000000000E-01  0.51099999109E-03 0.  1.
       11   -1    0    0    0    0 -0.00000000000E+00 -0.00000000000E+00 -0.34996269501E-01  0.35000000000E-01  0.51099999109E-03 0. -1.
       22    1    1    2    0    0  0.19856791798E-08  0.21034879910E-09  0.62426630645E-08  0.65542360775E-08  0.00000000000E+00 0. -1.
       22    1    1    2    0    0  0.22828063541E-01  0.26111090683E-01  0.47000158232E-02  0.34999995578E-01  0.00000000000E+00 0. -1.
       22    1    1    2    0    0 -0.22828065527E-01 -0.26111090893E-01 -0.47000220658E-02  0.34999997868E-01  0.00000000000E+00 0.  1.
</event>
<event>
 5   0  0.2147244E+06  0.9118800E+02  0.7546771E-02  0.1180000E+00
      -11   -1    0    0    0    0  0.00000000000E+00  0.00000000000E+00  0.34996269501E-01  0.35000000000E-01  0.51099999109E-03 0.  1.
       11   -1    0    0    0    0 -0.00000000000E+00 -0.00000000000E+00 -0.34996269501E-01  0.35000000000E-01  0.51099999109E-03 0. -1.
       22    1    1    2    0    0  0.10315347243E-01  0.15255602404E-01  0.28434975212E-01  0.33877538410E-01  0.00000000000E+00 0.  1.
       22    1    1    2    0    0  0.81144871164E-04 -0.39910925335E-03  0.12625942270E-02  0.13266562736E-02  0.00000000000E+00 0.  1.
       22    1    1    2    0    0 -0.10396492114E-01 -0.14856493151E-01 -0.29697569439E-01  0.34795805316E-01  0.00000000000E+00 0. -1.
</event>
<event>
 5   0  0.2147244E+06  0.9118800E+02  0.7546771E-02  0.1180000E+00
      -11   -1    0    0    0    0  0.00000000000E+00  0.00000000000E+00  0.34996269501E-01  0.35000000000E-01  0.51099999109E-03 0.  1.
       11   -1    0    0    0    0 -0.00000000000E+00 -0.00000000000E+00 -0.34996269501E-01  0.35000000000E-01  0.51099999109E-03 0. -1.
       22    1    1    2    0    0  0.58810607280E-03  0.46979237558E-03 -0.34991904219E-01  0.34999999065E-01  0.00000000000E+00 0. -1.
       22    1    1    2    0    0  0.23403017903E-07 -0.13515286802E-06  0.39577333139E-05  0.39601094660E-05  0.00000000000E+00 0.  1.
       22    1    1    2    0    0 -0.58812947582E-03 -0.46965722271E-03  0.34987946486E-01  0.34996040826E-01  0.00000000000E+00 0.  1.
</event>
<event>
 5   0  0.2147244E+06  0.9118800E+02  0.7546771E-02  0.1180000E+00
      -11   -1    0    0    0    0  0.00000000000E+00  0.00000000000E+00  0.34996269501E-01  0.35000000000E-01  0.51099999109E-03 0. -1.
       11   -1    0    0    0    0 -0.00000000000E+00 -0.00000000000E+00 -0.34996269501E-01  0.35000000000E-01  0.51099999109E-03 0.  1.
       22    1    1    2    0    0 -0.16682580054E-02 -0.14838032253E-02 -0.87224894679E-02  0.90036980903E-02  0.00000000000E+00 0.  1.
       22    1    1    2    0    0 -0.68131342401E-02  0.31069425298E-02 -0.25045874145E-01  0.26141302602E-01  0.00000000000E+00 0.  1.
       22    1    1    2    0    0  0.84813922454E-02 -0.16231393045E-02  0.33768363613E-01  0.34854999307E-01  0.00000000000E+00 0. -1.
</event>
<event>
 5   0  0.2147244E+06  0.9118800E+02  0.7546771E-02  0.1180000E+00
      -11   -1    0    0    0    0  0.00000000000E+00  0.00000000000E+00  0.34996269501E-01  0.35000000000E-01  0.51099999109E-03 0. -1.
       11   -1    0    0    0    0 -0.00000000000E+00 -0.00000000000E+00 -0.34996269501E-01  0.35000000000E-01  0.51099999109E-03 0.  1.
       22    1    1    2    0    0  0.67675854527E-02 -0.68818343948E-02  0.20184092121E-01  0.22373140867E-01  0.00000000000E+00 0. -1.
       22    1    1    2    0    0 -0.66700418840E-02  0.38363506724E-02  0.12566337776E-01  0.14734988643E-01  0.00000000000E+00 0.  1.
       22    1    1    2    0    0 -0.97543568752E-04  0.30454837224E-02 -0.32750429897E-01  0.32891870490E-01  0.00000000000E+00 0.  1.
</event>
<event>
 5   0  0.2147244E+06  0.9118800E+02  0.7546771E-02  0.1180000E+00
      -11   -1    0    0    0    0  0.00000000000E+00  0.00000000000E+00  0.34996269501E-01  0.35000000000E-01  0.51099999109E-03 0.  1.
       11   -1    0    0    0    0 -0.00000000000E+00 -0.00000000000E+00 -0.34996269501E-01  0.35000000000E-01  0.51099999109E-03 0. -1.
       22    1    1    2    0    0  0.16503393842E-01  0.22974493030E-01 -0.12694249279E-01  0.31005375390E-01  0.00000000000E+00 0. -1.
       22    1    1    2    0    0  0.24968831000E-02 -0.69263955224E-04 -0.41162975128E-02  0.48148860760E-02  0.00000000000E+00 0.  1.
       22    1    1    2    0    0 -0.19000276942E-01 -0.22905229075E-01  0.16810546792E-01  0.34179738534E-01  0.00000000000E+00 0.  1.
</event>
<event>
 5   0  0.2147244E+06  0.9118800E+02  0.7546771E-02  0.1180000E+00
      -11   -1    0    0    0    0  0.00000000000E+00  0.00000000000E+00  0.34996269501E-01  0.35000000000E-01  0.51099999109E-03 0.  1.
       11   -1    0    0    0    0 -0.00000000000E+00 -0.00000000000E+00 -0.34996269501E-01  0.35000000000E-01  0.51099999109E-03 0. -1.
       22    1    1    2    0    0  0.16251516577E-03 -0.44507357693E-03  0.34995544677E-01  0.34998752105E-01  0.00000000000E+00 0.  1.
       22    1    1    2    0    0 -0.16267610956E-03  0.44492784920E-03 -0.34996783742E-01  0.34999989951E-01  0.00000000000E+00 0. -1.
       22    1    1    2    0    0  0.16094378949E-06  0.14572772997E-06  0.12390655908E-05  0.12579439626E-05  0.00000000000E+00 0. -1.
</event>
<event>
 5   0  0.2147244E+06  0.9118800E+02  0.7546771E-02  0.1180000E+00
      -11   -1    0    0    0    0  0.00000000000E+00  0.00000000000E+00  0.34996269501E-01  0.35000000000E-01  0.51099999109E-03 0.  1.
       11   -1    0    0    0    0 -0.00000000000E+00 -0.00000000000E+00 -0.34996269501E-01  0.35000000000E-01  0.51099999109E-03 0. -1.
       22    1    1    2    0    0 -0.12862721268E-01 -0.12044883247E-01 -0.30234958992E-01  0.34995450506E-01  0.00000000000E+00 0. -1.
       22    1    1    2    0    0  0.15595372795E-05 -0.36362670048E-06  0.69922738081E-04  0.69941072923E-04  0.00000000000E+00 0. -1.
       22    1    1    2    0    0  0.12861161731E-01  0.12045246874E-01  0.30165036254E-01  0.34934608421E-01  0.00000000000E+00 0.  1.
</event>
<event>
 5   0  0.2147244E+06  0.9118800E+02  0.7546771E-02  0.1180000E+00
      -11   -1    0    0    0    0  0.00000000000E+00  0.00000000000E+00  0.34996269501E-01  0.35000000000E-01  0.51099999109E-03 0.  1.
       11   -1    0    0    0    0 -0.00000000000E+00 -0.00000000000E+00 -0.34996269501E-01  0.35000000000E-01  0.51099999109E-03 0. -1.
       22    1    1    2    0    0  0.50659520252E-04  0.32507149372E-02 -0.34848658339E-01  0.34999981457E-01  0.00000000000E+00 0. -1.
       22    1    1    2    0    0 -0.18993905695E-07  0.17659934557E-06  0.93910019069E-06  0.95574958303E-06  0.00000000000E+00 0. -1.
       22    1    1    2    0    0 -0.50640526346E-04 -0.32508915366E-02  0.34847719239E-01  0.34999062793E-01  0.00000000000E+00 0.  1.
</event>
<event>
 5   0  0.2147244E+06  0.9118800E+02  0.7546771E-02  0.1180000E+00
      -11   -1    0    0    0    0  0.00000000000E+00  0.00000000000E+00  0.34996269501E-01  0.35000000000E-01  0.51099999109E-03 0. -1.
       11   -1    0    0    0    0 -0.00000000000E+00 -0.00000000000E+00 -0.34996269501E-01  0.35000000000E-01  0.51099999109E-03 0. -1.
       22    1    1    2    0    0 -0.19174246728E-03  0.95038530797E-04 -0.11991534705E-02  0.12180995616E-02  0.00000000000E+00 0.  1.
       22    1    1    2    0    0  0.19174246728E-03 -0.95038530797E-04 -0.33791284736E-01  0.33791962381E-01  0.00000000000E+00 0. -1.
       22    1    1    2    0    0 -0.00000000000E+00 -0.00000000000E+00  0.34990438206E-01  0.34989938057E-01  0.00000000000E+00 0. -1.
</event>
<event>
 5   0  0.2147244E+06  0.9118800E+02  0.7546771E-02  0.1180000E+00
      -11   -1    0    0    0    0  0.00000000000E+00  0.00000000000E+00  0.34996269501E-01  0.35000000000E-01  0.51099999109E-03 0. -1.
       11   -1    0    0    0    0 -0.00000000000E+00 -0.00000000000E+00 -0.34996269501E-01  0.35000000000E-01  0.51099999109E-03 0. -1.
       22    1    1    2    0    0  0.27133143732E-02 -0.12354149082E-02 -0.34849751279E-01  0.34977042315E-01  0.00000000000E+00 0. -1.
       22    1    1    2    0    0 -0.00000000000E+00  0.00000000000E+00  0.94153754409E-02  0.94144473966E-02  0.00000000000E+00 0. -1.
       22    1    1    2    0    0 -0.27133143732E-02  0.12354149082E-02  0.25434375839E-01  0.25608510288E-01  0.00000000000E+00 0.  1.
</event>
<event>
 5   0  0.2147244E+06  0.9118800E+02  0.7546771E-02  0.1180000E+00
      -11   -1    0    0    0    0  0.00000000000E+00  0.00000000000E+00  0.34996269501E-01  0.35000000000E-01  0.51099999109E-03 0. -1.
       11   -1    0    0    0    0 -0.00000000000E+00 -0.00000000000E+00 -0.34996269501E-01  0.35000000000E-01  0.51099999109E-03 0.  1.
       22    1    1    2    0    0  0.14899456291E-04  0.10481103296E-04  0.10888024431E-04  0.21222544619E-04  0.00000000000E+00 0. -1.
       22    1    1    2    0    0 -0.10953582003E-01 -0.17337024223E-01  0.28350308036E-01  0.34989903305E-01  0.00000000000E+00 0. -1.
       22    1    1    2    0    0  0.10938682547E-01  0.17326543120E-01 -0.28361196060E-01  0.34988874150E-01  0.00000000000E+00 0.  1.
</event>
<event>
 5   0  0.2147244E+06  0.9118800E+02  0.7546771E-02  0.1180000E+00
      -11   -1    0    0    0    0  0.00000000000E+00  0.00000000000E+00  0.34996269501E-01  0.35000000000E-01  0.51099999109E-03 0.  1.
       11   -1    0    0    0    0 -0.00000000000E+00 -0.00000000000E+00 -0.34996269501E-01  0.35000000000E-01  0.51099999109E-03 0. -1.
       22    1    1    2    0    0  0.13100751961E-06  0.88000650515E-05  0.85857323015E-05  0.12295247335E-04  0.00000000000E+00 0.  1.
       22    1    1    2    0    0  0.23357107794E-01  0.15895365713E-01 -0.20649136565E-01  0.34994342065E-01  0.00000000000E+00 0. -1.
       22    1    1    2    0    0 -0.23357238802E-01 -0.15904165778E-01  0.20640550833E-01  0.34993362688E-01  0.00000000000E+00 0.  1.
</event>
<event>
 5   0  0.2147244E+06  0.9118800E+02  0.7546771E-02  0.1180000E+00
      -11   -1    0    0    0    0  0.00000000000E+00  0.00000000000E+00  0.34996269501E-01  0.35000000000E-01  0.51099999109E-03 0.  1.
       11   -1    0    0    0    0 -0.00000000000E+00 -0.00000000000E+00 -0.34996269501E-01  0.35000000000E-01  0.51099999109E-03 0.  1.
       22    1    1    2    0    0 -0.79225780875E-03  0.76715101105E-03  0.24981361361E-01  0.25005691524E-01  0.00000000000E+00 0.  1.
       22    1    1    2    0    0 -0.32283592947E-02  0.57971245733E-02 -0.33128092306E-01  0.33786083776E-01  0.00000000000E+00 0.  1.
       22    1    1    2    0    0  0.40206171034E-02 -0.65642755844E-02  0.81467309450E-02  0.11208224700E-01  0.00000000000E+00 0. -1.
</event>
<event>
 5   0  0.2147244E+06  0.9118800E+02  0.7546771E-02  0.1180000E+00
      -11   -1    0    0    0    0  0.00000000000E+00  0.00000000000E+00  0.34996269501E-01  0.35000000000E-01  0.51099999109E-03 0. -1.
       11   -1    0    0    0    0 -0.00000000000E+00 -0.00000000000E+00 -0.34996269501E-01  0.35000000000E-01  0.51099999109E-03 0.  1.
       22    1    1    2    0    0 -0.31993878465E-02 -0.20303312541E-03  0.33039741593E-01  0.33194906681E-01  0.00000000000E+00 0. -1.
       22    1    1    2    0    0 -0.69138428334E-04 -0.26191797441E-03  0.17944613251E-02  0.18147927141E-02  0.00000000000E+00 0.  1.
       22    1    1    2    0    0  0.32685262748E-02  0.46495109982E-03 -0.34834202918E-01  0.34990300605E-01  0.00000000000E+00 0.  1.
</event>
<event>
 5   0  0.2147244E+06  0.9118800E+02  0.7546771E-02  0.1180000E+00
      -11   -1    0    0    0    0  0.00000000000E+00  0.00000000000E+00  0.34996269501E-01  0.35000000000E-01  0.51099999109E-03 0.  1.
       11   -1    0    0    0    0 -0.00000000000E+00 -0.00000000000E+00 -0.34996269501E-01  0.35000000000E-01  0.51099999109E-03 0.  1.
       22    1    1    2    0    0 -0.29114929388E-04  0.76980808083E-04 -0.34462894086E-01  0.34462992362E-01  0.00000000000E+00 0.  1.
       22    1    1    2    0    0 -0.57179031325E-03  0.88274717957E-03  0.34385990860E-01  0.34402071945E-01  0.00000000000E+00 0.  1.
       22    1    1    2    0    0  0.60090524264E-03 -0.95972798766E-03  0.76903226494E-04  0.11349356930E-02  0.00000000000E+00 0. -1.
</event>
<event>
 5   0  0.2147244E+06  0.9118800E+02  0.7546771E-02  0.1180000E+00
      -11   -1    0    0    0    0  0.00000000000E+00  0.00000000000E+00  0.34996269501E-01  0.35000000000E-01  0.51099999109E-03 0. -1.
       11   -1    0    0    0    0 -0.00000000000E+00 -0.00000000000E+00 -0.34996269501E-01  0.35000000000E-01  0.51099999109E-03 0.  1.
       22    1    1    2    0    0  0.68172900622E-05  0.80480879078E-05 -0.27032865853E-03  0.27053434308E-03  0.00000000000E+00 0. -1.
       22    1    1    2    0    0  0.14927109604E-01 -0.58845200170E-02 -0.30817142162E-01  0.34743955273E-01  0.00000000000E+00 0.  1.
       22    1    1    2    0    0 -0.14933926894E-01  0.58764719291E-02  0.31087470821E-01  0.34985510384E-01  0.00000000000E+00 0. -1.
</event>
<event>
 5   0  0.2147244E+06  0.9118800E+02  0.7546771E-02  0.1180000E+00
      -11   -1    0    0    0    0  0.00000000000E+00  0.00000000000E+00  0.34996269501E-01  0.35000000000E-01  0.51099999109E-03 0.  1.
       11   -1    0    0    0    0 -0.00000000000E+00 -0.00000000000E+00 -0.34996269501E-01  0.35000000000E-01  0.51099999109E-03 0. -1.
       22    1    1    2    0    0 -0.14238778949E-07 -0.98073861577E-07  0.61214164413E-06  0.62011177834E-06  0.00000000000E+00 0. -1.
       22    1    1    2    0    0  0.24050338861E-02  0.79856258842E-03 -0.34908134971E-01  0.34999996820E-01  0.00000000000E+00 0. -1.
       22    1    1    2    0    0 -0.24050196473E-02 -0.79846451456E-03  0.34907522830E-01  0.34999383069E-01  0.00000000000E+00 0.  1.
</event>
<event>
 5   0  0.2147244E+06  0.9118800E+02  0.7546771E-02  0.1180000E+00
      -11   -1    0    0    0    0  0.00000000000E+00  0.00000000000E+00  0.34996269501E-01  0.35000000000E-01  0.51099999109E-03 0.  1.
       11   -1    0    0    0    0 -0.00000000000E+00 -0.00000000000E+00 -0.34996269501E-01  0.35000000000E-01  0.51099999109E-03 0. -1.
       22    1    1    2    0    0  0.34569573753E-01  0.23348928488E-02 -0.49486626119E-02  0.34999948796E-01  0.00000000000E+00 0. -1.
       22    1    1    2    0    0  0.28643961734E-08 -0.63767071504E-08  0.11622737486E-06  0.11643740733E-06  0.00000000000E+00 0. -1.
       22    1    1    2    0    0 -0.34569576617E-01 -0.23348864720E-02  0.49485463845E-02  0.34999934767E-01  0.00000000000E+00 0.  1.
</event>
<event>
 5   0  0.2147244E+06  0.9118800E+02  0.7546771E-02  0.1180000E+00
      -11   -1    0    0    0    0  0.00000000000E+00  0.00000000000E+00  0.34996269501E-01  0.35000000000E-01  0.51099999109E-03 0. -1.
       11   -1    0    0    0    0 -0.00000000000E+00 -0.00000000000E+00 -0.34996269501E-01  0.35000000000E-01  0.51099999109E-03 0.  1.
       22    1    1    2    0    0 -0.27172083196E-02  0.28784478955E-02 -0.34775422857E-01  0.34999981689E-01  0.00000000000E+00 0.  1.
       22    1    1    2    0    0  0.28188599873E-07  0.39344270884E-07  0.15277792312E-07  0.50754110692E-07  0.00000000000E+00 0.  1.
       22    1    1    2    0    0  0.27171801310E-02 -0.28784872398E-02  0.34775407579E-01  0.34999967557E-01  0.00000000000E+00 0. -1.
</event>
<event>
 5   0  0.2147244E+06  0.9118800E+02  0.7546771E-02  0.1180000E+00
      -11   -1    0    0    0    0  0.00000000000E+00  0.00000000000E+00  0.34996269501E-01  0.35000000000E-01  0.51099999109E-03 0.  1.
       11   -1    0    0    0    0 -0.00000000000E+00 -0.00000000000E+00 -0.34996269501E-01  0.35000000000E-01  0.51099999109E-03 0. -1.
       22    1    1    2    0    0 -0.10547718865E-02  0.23248047251E-02 -0.34906646691E-01  0.34999874913E-01  0.00000000000E+00 0. -1.
       22    1    1    2    0    0 -0.11362458459E-05 -0.11533843647E-05  0.45335244576E-05  0.48139582593E-05  0.00000000000E+00 0.  1.
       22    1    1    2    0    0  0.10559081324E-02 -0.23236513407E-02  0.34902113166E-01  0.34995311129E-01  0.00000000000E+00 0.  1.
</event>
<event>
 5   0  0.2147244E+06  0.9118800E+02  0.7546771E-02  0.1180000E+00
      -11   -1    0    0    0    0  0.00000000000E+00  0.00000000000E+00  0.34996269501E-01  0.35000000000E-01  0.51099999109E-03 0.  1.
       11   -1    0    0    0    0 -0.00000000000E+00 -0.00000000000E+00 -0.34996269501E-01  0.35000000000E-01  0.51099999109E-03 0. -1.
       22    1    1    2    0    0  0.11441006206E-03  0.44436053272E-03  0.17663760560E-02  0.18250014565E-02  0.00000000000E+00 0. -1.
       22    1    1    2    0    0  0.72841163180E-02 -0.11288232024E-01  0.30506940992E-01  0.33334006382E-01  0.00000000000E+00 0.  1.
       22    1    1    2    0    0 -0.73985263801E-02  0.10843871491E-01 -0.32273317048E-01  0.34840992162E-01  0.00000000000E+00 0. -1.
</event>
<event>
 5   0  0.2147244E+06  0.9118800E+02  0.7546771E-02  0.1180000E+00
      -11   -1    0    0    0    0  0.00000000000E+00  0.00000000000E+00  0.34996269501E-01  0.35000000000E-01  0.51099999109E-03 0.  1.
       11   -1    0    0    0    0 -0.00000000000E+00 -0.00000000000E+00 -0.34996269501E-01  0.35000000000E-01  0.51099999109E-03 0. -1.
       22    1    1    2    0    0  0.18852793181E-05  0.10145044638E-05  0.14997906567E-03  0.14999434535E-03  0.00000000000E+00 0.  1.
       22    1    1    2    0    0  0.19820542134E-01 -0.61386377880E-04 -0.28830145234E-01  0.34986210612E-01  0.00000000000E+00 0. -1.
       22    1    1    2    0    0 -0.19822427414E-01  0.60371873416E-04  0.28680166168E-01  0.34863795043E-01  0.00000000000E+00 0.  1.
</event>
<event>
 5   0  0.2147244E+06  0.9118800E+02  0.7546771E-02  0.1180000E+00
      -11   -1    0    0    0    0  0.00000000000E+00  0.00000000000E+00  0.34996269501E-01  0.35000000000E-01  0.51099999109E-03 0.  1.
       11   -1    0    0    0    0 -0.00000000000E+00 -0.00000000000E+00 -0.34996269501E-01  0.35000000000E-01  0.51099999109E-03 0. -1.
       22    1    1    2    0    0  0.14854656021E-08 -0.84943444268E-08  0.68419786939E-07  0.68961059592E-07  0.00000000000E+00 0.  1.
       22    1    1    2    0    0 -0.39596331597E-02  0.16203604465E-01 -0.30769535952E-01  0.34999997645E-01  0.00000000000E+00 0. -1.
       22    1    1    2    0    0  0.39596316742E-02 -0.16203595970E-01  0.30769467533E-01  0.34999933394E-01  0.00000000000E+00 0.  1.
</event>
<event>
 5   0  0.2147244E+06  0.9118800E+02  0.7546771E-02  0.1180000E+00
      -11   -1    0    0    0    0  0.00000000000E+00  0.00000000000E+00  0.34996269501E-01  0.35000000000E-01  0.51099999109E-03 0. -1.
       11   -1    0    0    0    0 -0.00000000000E+00 -0.00000000000E+00 -0.34996269501E-01  0.35000000000E-01  0.51099999109E-03 0.  1.
       22    1    1    2    0    0  0.22230381948E-01 -0.46790300960E-02 -0.26624916854E-01  0.34999562878E-01  0.00000000000E+00 0.  1.
       22    1    1    2    0    0 -0.22230501470E-01  0.46791312876E-02  0.26621652987E-01  0.34997169499E-01  0.00000000000E+00 0. -1.
       22    1    1    2    0    0  0.11952267304E-06 -0.10119155539E-06  0.32638674247E-05  0.32676223720E-05  0.00000000000E+00 0.  1.
</event>
<event>
 5   0  0.2147244E+06  0.9118800E+02  0.7546771E-02  0.1180000E+00
      -11   -1    0    0    0    0  0.00000000000E+00  0.00000000000E+00  0.34996269501E-01  0.35000000000E-01  0.51099999109E-03 0. -1.
       11   -1    0    0    0    0 -0.00000000000E+00 -0.00000000000E+00 -0.34996269501E-01  0.35000000000E-01  0.51099999109E-03 0.  1.
       22    1    1    2    0    0  0.30986849290E-02  0.12426905743E-01 -0.32399539012E-01  0.34839058007E-01  0.00000000000E+00 0.  1.
       22    1    1    2    0    0 -0.48401407010E-03 -0.43787354641E-03  0.61539623054E-02  0.61884775930E-02  0.00000000000E+00 0.  1.
       22    1    1    2    0    0 -0.26146708589E-02 -0.11989032196E-01  0.26245576707E-01  0.28972464400E-01  0.00000000000E+00 0. -1.
</event>
<event>
 5   0  0.2147244E+06  0.9118800E+02  0.7546771E-02  0.1180000E+00
      -11   -1    0    0    0    0  0.00000000000E+00  0.00000000000E+00  0.34996269501E-01  0.35000000000E-01  0.51099999109E-03 0.  1.
       11   -1    0    0    0    0 -0.00000000000E+00 -0.00000000000E+00 -0.34996269501E-01  0.35000000000E-01  0.51099999109E-03 0. -1.
       22    1    1    2    0    0  0.81645815854E-03 -0.24620312005E-03 -0.10661572423E-01  0.10695622770E-01  0.00000000000E+00 0.  1.
       22    1    1    2    0    0 -0.24593795325E-02 -0.99436195241E-03 -0.24218625122E-01  0.24363478943E-01  0.00000000000E+00 0. -1.
       22    1    1    2    0    0  0.16429213740E-02  0.12405650725E-02  0.34880197545E-01  0.34940898288E-01  0.00000000000E+00 0.  1.
</event>
<event>
 5   0  0.2147244E+06  0.9118800E+02  0.7546771E-02  0.1180000E+00
      -11   -1    0    0    0    0  0.00000000000E+00  0.00000000000E+00  0.34996269501E-01  0.35000000000E-01  0.51099999109E-03 0.  1.
       11   -1    0    0    0    0 -0.00000000000E+00 -0.00000000000E+00 -0.34996269501E-01  0.35000000000E-01  0.51099999109E-03 0. -1.
       22    1    1    2    0    0  0.12125811002E-01  0.17247991147E-02  0.32723750345E-01  0.34940722104E-01  0.00000000000E+00 0.  1.
       22    1    1    2    0    0 -0.12123888751E-01 -0.17344953236E-02 -0.32784651956E-01  0.34997579293E-01  0.00000000000E+00 0. -1.
       22    1    1    2    0    0 -0.19222510486E-05  0.96962089322E-05  0.60901610603E-04  0.61698603637E-04  0.00000000000E+00 0. -1.
</event>
<event>
 5   0  0.2147244E+06  0.9118800E+02  0.7546771E-02  0.1180000E+00
      -11   -1    0    0    0    0  0.00000000000E+00  0.00000000000E+00  0.34996269501E-01  0.35000000000E-01  0.51099999109E-03 0. -1.
       11   -1    0    0    0    0 -0.00000000000E+00 -0.00000000000E+00 -0.34996269501E-01  0.35000000000E-01  0.51099999109E-03 0.  1.
       22    1    1    2    0    0 -0.34187254090E-03  0.10177968909E-02  0.12882345877E-05  0.10736801222E-02  0.00000000000E+00 0.  1.
       22    1    1    2    0    0  0.49645007522E-02 -0.34003873549E-02  0.34000628826E-01  0.34528997414E-01  0.00000000000E+00 0. -1.
       22    1    1    2    0    0 -0.46226282113E-02  0.23825904640E-02 -0.34001917060E-01  0.34397322464E-01  0.00000000000E+00 0.  1.
</event>
<event>
 5   0  0.2147244E+06  0.9118800E+02  0.7546771E-02  0.1180000E+00
      -11   -1    0    0    0    0  0.00000000000E+00  0.00000000000E+00  0.34996269501E-01  0.35000000000E-01  0.51099999109E-03 0. -1.
       11   -1    0    0    0    0 -0.00000000000E+00 -0.00000000000E+00 -0.34996269501E-01  0.35000000000E-01  0.51099999109E-03 0. -1.
       22    1    1    2    0    0  0.13026119585E-08 -0.12504886125E-08  0.91213285062E-09  0.20229943207E-08  0.00000000000E+00 0.  1.
       22    1    1    2    0    0  0.70158110623E-13 -0.67350769995E-13 -0.35000038690E-01  0.34999999445E-01  0.00000000000E+00 0. -1.
       22    1    1    2    0    0 -0.13026821166E-08  0.12505559633E-08  0.35000037778E-01  0.34999998532E-01  0.00000000000E+00 0. -1.
</event>
<event>
 5   0  0.2147244E+06  0.9118800E+02  0.7546771E-02  0.1180000E+00
      -11   -1    0    0    0    0  0.00000000000E+00  0.00000000000E+00  0.34996269501E-01  0.35000000000E-01  0.51099999109E-03 0. -1.
       11   -1    0    0    0    0 -0.00000000000E+00 -0.00000000000E+00 -0.34996269501E-01  0.35000000000E-01  0.51099999109E-03 0. -1.
       22    1    1    2    0    0  0.34823416383E-04 -0.14164557106E-03  0.34982502548E-01  0.34982806644E-01  0.00000000000E+00 0. -1.
       22    1    1    2    0    0  0.40075038484E-03  0.12758452340E-03 -0.32024361141E-01  0.32027122649E-01  0.00000000000E+00 0. -1.
       22    1    1    2    0    0 -0.43557380123E-03  0.14061047662E-04 -0.29581414074E-02  0.29900707074E-02  0.00000000000E+00 0.  1.
</event>
<event>
 5   0  0.2147244E+06  0.9118800E+02  0.7546771E-02  0.1180000E+00
      -11   -1    0    0    0    0  0.00000000000E+00  0.00000000000E+00  0.34996269501E-01  0.35000000000E-01  0.51099999109E-03 0. -1.
       11   -1    0    0    0    0 -0.00000000000E+00 -0.00000000000E+00 -0.34996269501E-01  0.35000000000E-01  0.51099999109E-03 0.  1.
       22    1    1    2    0    0  0.17095601192E-07  0.32078242057E-08  0.88433489644E-08  0.19512932561E-07  0.00000000000E+00 0. -1.
       22    1    1    2    0    0 -0.88458465451E-03  0.51542087415E-03 -0.34985018097E-01  0.34999994856E-01  0.00000000000E+00 0.  1.
       22    1    1    2    0    0  0.88456755890E-03 -0.51542408197E-03  0.34985009253E-01  0.34999985631E-01  0.00000000000E+00 0. -1.
</event>
<event>
 5   0  0.2147244E+06  0.9118800E+02  0.7546771E-02  0.1180000E+00
      -11   -1    0    0    0    0  0.00000000000E+00  0.00000000000E+00  0.34996269501E-01  0.35000000000E-01  0.51099999109E-03 0. -1.
       11   -1    0    0    0    0 -0.00000000000E+00 -0.00000000000E+00 -0.34996269501E-01  0.35000000000E-01  0.51099999109E-03 0.  1.
       22    1    1    2    0    0 -0.44802388879E-02 -0.13004675061E-02 -0.34687691146E-01  0.34999995333E-01  0.00000000000E+00 0.  1.
       22    1    1    2    0    0  0.44802522709E-02  0.13004802281E-02  0.34686914561E-01  0.34999227863E-01  0.00000000000E+00 0. -1.
       22    1    1    2    0    0 -0.13382983503E-07 -0.12721987189E-07  0.77658472200E-06  0.77680421191E-06  0.00000000000E+00 0.  1.
</event>
<event>
 5   0  0.2147244E+06  0.9118800E+02  0.7546771E-02  0.1180000E+00
      -11   -1    0    0    0    0  0.00000000000E+00  0.00000000000E+00  0.34996269501E-01  0.35000000000E-01  0.51099999109E-03 0.  1.
       11   -1    0    0    0    0 -0.00000000000E+00 -0.00000000000E+00 -0.34996269501E-01  0.35000000000E-01  0.51099999109E-03 0.  1.
       22    1    1    2    0    0 -0.49716846577E-03  0.46715450243E-03  0.34992981243E-01  0.34999630656E-01  0.00000000000E+00 0.  1.
       22    1    1    2    0    0 -0.21317152365E-06 -0.25814793988E-06  0.29376200177E-06  0.44539709366E-06  0.00000000000E+00 0. -1.
       22    1    1    2    0    0  0.49738163729E-03 -0.46689635449E-03 -0.34993275005E-01  0.34999923947E-01  0.00000000000E+00 0.  1.
</event>
<event>
 5   0  0.2147244E+06  0.9118800E+02  0.7546771E-02  0.1180000E+00
      -11   -1    0    0    0    0  0.00000000000E+00  0.00000000000E+00  0.34996269501E-01  0.35000000000E-01  0.51099999109E-03 0. -1.
       11   -1    0    0    0    0 -0.00000000000E+00 -0.00000000000E+00 -0.34996269501E-01  0.35000000000E-01  0.51099999109E-03 0.  1.
       22    1    1    2    0    0 -0.86824883453E-03  0.10986759505E-02 -0.27402114490E-01  0.27437872064E-01  0.00000000000E+00 0.  1.
       22    1    1    2    0    0 -0.38530466569E-02 -0.34853174757E-03 -0.69096124172E-02  0.79189763653E-02  0.00000000000E+00 0.  1.
       22    1    1    2    0    0  0.47212954914E-02 -0.75014420291E-03  0.34311726907E-01  0.34643151571E-01  0.00000000000E+00 0. -1.
</event>
<event>
 5   0  0.2147244E+06  0.9118800E+02  0.7546771E-02  0.1180000E+00
      -11   -1    0    0    0    0  0.00000000000E+00  0.00000000000E+00  0.34996269501E-01  0.35000000000E-01  0.51099999109E-03 0.  1.
       11   -1    0    0    0    0 -0.00000000000E+00 -0.00000000000E+00 -0.34996269501E-01  0.35000000000E-01  0.51099999109E-03 0. -1.
       22    1    1    2    0    0 -0.11663605768E-01  0.83457858137E-02 -0.31926592922E-01  0.34999988228E-01  0.00000000000E+00 0. -1.
       22    1    1    2    0    0  0.19711746391E-06 -0.37236340152E-06  0.12257502180E-05  0.12961378763E-05  0.00000000000E+00 0. -1.
       22    1    1    2    0    0  0.11663408651E-01 -0.83454134503E-02  0.31925367172E-01  0.34998715634E-01  0.00000000000E+00 0.  1.
</event>
<event>
 5   0  0.2147244E+06  0.9118800E+02  0.7546771E-02  0.1180000E+00
      -11   -1    0    0    0    0  0.00000000000E+00  0.00000000000E+00  0.34996269501E-01  0.35000000000E-01  0.51099999109E-03 0.  1.
       11   -1    0    0    0    0 -0.00000000000E+00 -0.00000000000E+00 -0.34996269501E-01  0.35000000000E-01  0.51099999109E-03 0. -1.
       22    1    1    2    0    0 -0.76030821046E-02 -0.32595788681E-02 -0.34008354576E-01  0.34999998470E-01  0.00000000000E+00 0. -1.
       22    1    1    2    0    0  0.17252519419E-07  0.23486710615E-08  0.20262408500E-07  0.26715742181E-07  0.00000000000E+00 0. -1.
       22    1    1    2    0    0  0.76030648521E-02  0.32595765195E-02  0.34008334314E-01  0.34999974815E-01  0.00000000000E+00 0.  1.
</event>
<event>
 5   0  0.2147244E+06  0.9118800E+02  0.7546771E-02  0.1180000E+00
      -11   -1    0    0    0    0  0.00000000000E+00  0.00000000000E+00  0.34996269501E-01  0.35000000000E-01  0.51099999109E-03 0.  1.
       11   -1    0    0    0    0 -0.00000000000E+00 -0.00000000000E+00 -0.34996269501E-01  0.35000000000E-01  0.51099999109E-03 0. -1.
       22    1    1    2    0    0 -0.13894482514E-01  0.75947493388E-02  0.31213186974E-01  0.34999998613E-01  0.00000000000E+00 0.  1.
       22    1    1    2    0    0 -0.22258845090E-08 -0.42209664510E-10 -0.40799395507E-09  0.22633609015E-08  0.00000000000E+00 0. -1.
       22    1    1    2    0    0  0.13894484740E-01 -0.75947492966E-02 -0.31213186566E-01  0.34999999124E-01  0.00000000000E+00 0. -1.
</event>
<event>
 5   0  0.2147244E+06  0.9118800E+02  0.7546771E-02  0.1180000E+00
      -11   -1    0    0    0    0  0.00000000000E+00  0.00000000000E+00  0.34996269501E-01  0.35000000000E-01  0.51099999109E-03 0.  1.
       11   -1    0    0    0    0 -0.00000000000E+00 -0.00000000000E+00 -0.34996269501E-01  0.35000000000E-01  0.51099999109E-03 0. -1.
       22    1    1    2    0    0  0.16206465203E-01 -0.23057321295E-01  0.20700772862E-01  0.34968722836E-01  0.00000000000E+00 0.  1.
       22    1    1    2    0    0 -0.16207138006E-01  0.23058836936E-01 -0.20551215733E-01  0.34881710843E-01  0.00000000000E+00 0. -1.
       22    1    1    2    0    0  0.67280308453E-06 -0.15156415242E-05 -0.14955712893E-03  0.14956632190E-03  0.00000000000E+00 0. -1.
</event>
<event>
 5   0  0.2147244E+06  0.9118800E+02  0.7546771E-02  0.1180000E+00
      -11   -1    0    0    0    0  0.00000000000E+00  0.00000000000E+00  0.34996269501E-01  0.35000000000E-01  0.51099999109E-03 0.  1.
       11   -1    0    0    0    0 -0.00000000000E+00 -0.00000000000E+00 -0.34996269501E-01  0.35000000000E-01  0.51099999109E-03 0. -1.
       22    1    1    2    0    0 -0.21656773431E-03  0.40769032217E-02 -0.65638927303E-02  0.77299889545E-02  0.00000000000E+00 0. -1.
       22    1    1    2    0    0 -0.24455743219E-01  0.14750974587E-01 -0.52933853699E-02  0.29046420714E-01  0.00000000000E+00 0.  1.
       22    1    1    2    0    0  0.24672310953E-01 -0.18827877809E-01  0.11857278100E-01  0.33223590331E-01  0.00000000000E+00 0. -1.
</event>
<event>
 5   0  0.2147244E+06  0.9118800E+02  0.7546771E-02  0.1180000E+00
      -11   -1    0    0    0    0  0.00000000000E+00  0.00000000000E+00  0.34996269501E-01  0.35000000000E-01  0.51099999109E-03 0.  1.
       11   -1    0    0    0    0 -0.00000000000E+00 -0.00000000000E+00 -0.34996269501E-01  0.35000000000E-01  0.51099999109E-03 0. -1.
       22    1    1    2    0    0 -0.38103224549E-03 -0.52604715663E-03  0.34853842306E-01  0.34859894359E-01  0.00000000000E+00 0.  1.
       22    1    1    2    0    0 -0.47280860470E-06  0.34808643334E-04  0.13820959051E-03  0.14252633478E-03  0.00000000000E+00 0. -1.
       22    1    1    2    0    0  0.38150505410E-03  0.49123851329E-03 -0.34992051897E-01  0.34997579307E-01  0.00000000000E+00 0. -1.
</event>
<event>
 5   0  0.2147244E+06  0.9118800E+02  0.7546771E-02  0.1180000E+00
      -11   -1    0    0    0    0  0.00000000000E+00  0.00000000000E+00  0.34996269501E-01  0.35000000000E-01  0.51099999109E-03 0.  1.
       11   -1    0    0    0    0 -0.00000000000E+00 -0.00000000000E+00 -0.34996269501E-01  0.35000000000E-01  0.51099999109E-03 0. -1.
       22    1    1    2    0    0  0.20815239442E-03  0.30469953366E-03  0.34477492614E-01  0.34479467313E-01  0.00000000000E+00 0.  1.
       22    1    1    2    0    0  0.19589020934E-03  0.43488415292E-05  0.50120137986E-03  0.53814004656E-03  0.00000000000E+00 0.  1.
       22    1    1    2    0    0 -0.40404260376E-03 -0.30904837519E-03 -0.34978693994E-01  0.34982392640E-01  0.00000000000E+00 0. -1.
</event>
<event>
 5   0  0.2147244E+06  0.9118800E+02  0.7546771E-02  0.1180000E+00
      -11   -1    0    0    0    0  0.00000000000E+00  0.00000000000E+00  0.34996269501E-01  0.35000000000E-01  0.51099999109E-03 0. -1.
       11   -1    0    0    0    0 -0.00000000000E+00 -0.00000000000E+00 -0.34996269501E-01  0.35000000000E-01  0.51099999109E-03 0.  1.
       22    1    1    2    0    0 -0.11634848139E-02  0.94236899236E-03  0.34963984336E-01  0.34996027730E-01  0.00000000000E+00 0. -1.
       22    1    1    2    0    0  0.11639244991E-02 -0.94285632635E-03 -0.34967917338E-01  0.34999984875E-01  0.00000000000E+00 0.  1.
       22    1    1    2    0    0 -0.43968526160E-06  0.48733399216E-06  0.39330018234E-05  0.39873952515E-05  0.00000000000E+00 0. -1.
</event>
<event>
 5   0  0.2147244E+06  0.9118800E+02  0.7546771E-02  0.1180000E+00
      -11   -1    0    0    0    0  0.00000000000E+00  0.00000000000E+00  0.34996269501E-01  0.35000000000E-01  0.51099999109E-03 0. -1.
       11   -1    0    0    0    0 -0.00000000000E+00 -0.00000000000E+00 -0.34996269501E-01  0.35000000000E-01  0.51099999109E-03 0.  1.
       22    1    1    2    0    0 -0.88060892567E-02  0.35774992519E-02 -0.31893239781E-01  0.33279489970E-01  0.00000000000E+00 0.  1.
       22    1    1    2    0    0  0.11218657717E-03  0.14322835053E-04 -0.17669871720E-02  0.17706029023E-02  0.00000000000E+00 0.  1.
       22    1    1    2    0    0  0.86939026796E-02 -0.35918220869E-02  0.33660226953E-01  0.34949907128E-01  0.00000000000E+00 0. -1.
</event>
<event>
 5   0  0.2147244E+06  0.9118800E+02  0.7546771E-02  0.1180000E+00
      -11   -1    0    0    0    0  0.00000000000E+00  0.00000000000E+00  0.34996269501E-01  0.35000000000E-01  0.51099999109E-03 0. -1.
       11   -1    0    0    0    0 -0.00000000000E+00 -0.00000000000E+00 -0.34996269501E-01  0.35000000000E-01  0.51099999109E-03 0.  1.
       22    1    1    2    0    0 -0.60723700418E-06 -0.13816541783E-06  0.26168836428E-05  0.26899640262E-05  0.00000000000E+00 0. -1.
       22    1    1    2    0    0  0.35998066199E-02  0.36628298004E-02  0.34618535794E-01  0.34997399194E-01  0.00000000000E+00 0. -1.
       22    1    1    2    0    0 -0.35991993828E-02 -0.36626916350E-02 -0.34621152678E-01  0.34999910842E-01  0.00000000000E+00 0.  1.
</event>
<event>
 5   0  0.2147244E+06  0.9118800E+02  0.7546771E-02  0.1180000E+00
      -11   -1    0    0    0    0  0.00000000000E+00  0.00000000000E+00  0.34996269501E-01  0.35000000000E-01  0.51099999109E-03 0.  1.
       11   -1    0    0    0    0 -0.00000000000E+00 -0.00000000000E+00 -0.34996269501E-01  0.35000000000E-01  0.51099999109E-03 0. -1.
       22    1    1    2    0    0 -0.26194356745E-03 -0.15111485083E-02 -0.34652860373E-01  0.34686783020E-01  0.00000000000E+00 0. -1.
       22    1    1    2    0    0  0.10480581325E-02  0.53015586729E-03  0.76419696063E-03  0.14012451918E-02  0.00000000000E+00 0. -1.
       22    1    1    2    0    0 -0.78611456508E-03  0.98099264096E-03  0.33888663413E-01  0.33911971788E-01  0.00000000000E+00 0.  1.
</event>
<event>
 5   0  0.2147244E+06  0.9118800E+02  0.7546771E-02  0.1180000E+00
      -11   -1    0    0    0    0  0.00000000000E+00  0.00000000000E+00  0.34996269501E-01  0.35000000000E-01  0.51099999109E-03 0.  1.
       11   -1    0    0    0    0 -0.00000000000E+00 -0.00000000000E+00 -0.34996269501E-01  0.35000000000E-01  0.51099999109E-03 0. -1.
       22    1    1    2    0    0  0.20895966610E-01 -0.17845030660E-01 -0.21677155337E-01  0.34999794333E-01  0.00000000000E+00 0. -1.
       22    1    1    2    0    0 -0.30977501627E-05  0.60860535345E-05  0.56346805387E-05  0.88535715107E-05  0.00000000000E+00 0. -1.
       22    1    1    2    0    0 -0.20892868860E-01  0.17838944606E-01  0.21671520657E-01  0.34991352095E-01  0.00000000000E+00 0.  1.
</event>
<event>
 5   0  0.2147244E+06  0.9118800E+02  0.7546771E-02  0.1180000E+00
      -11   -1    0    0    0    0  0.00000000000E+00  0.00000000000E+00  0.34996269501E-01  0.35000000000E-01  0.51099999109E-03 0.  1.
       11   -1    0    0    0    0 -0.00000000000E+00 -0.00000000000E+00 -0.34996269501E-01  0.35000000000E-01  0.51099999109E-03 0. -1.
       22    1    1    2    0    0  0.12422446787E-01 -0.32567142183E-01  0.30943933450E-02  0.34993016508E-01  0.00000000000E+00 0.  1.
       22    1    1    2    0    0 -0.12422218538E-01  0.32567518705E-01 -0.31069689498E-02  0.34994400181E-01  0.00000000000E+00 0. -1.
       22    1    1    2    0    0 -0.22824949462E-06 -0.37652190430E-06  0.12575604767E-04  0.12583310448E-04  0.00000000000E+00 0. -1.
</event>
<event>
 5   0  0.2147244E+06  0.9118800E+02  0.7546771E-02  0.1180000E+00
      -11   -1    0    0    0    0  0.00000000000E+00  0.00000000000E+00  0.34996269501E-01  0.35000000000E-01  0.51099999109E-03 0. -1.
       11   -1    0    0    0    0 -0.00000000000E+00 -0.00000000000E+00 -0.34996269501E-01  0.35000000000E-01  0.51099999109E-03 0.  1.
       22    1    1    2    0    0 -0.13633890258E-02 -0.23873710814E-02  0.15655631027E-01  0.15895192770E-01  0.00000000000E+00 0. -1.
       22    1    1    2    0    0 -0.20930017697E-01 -0.99814038879E-02  0.17201174112E-02  0.23251943322E-01  0.00000000000E+00 0. -1.
       22    1    1    2    0    0  0.22293406722E-01  0.12368774969E-01 -0.17375748439E-01  0.30852863908E-01  0.00000000000E+00 0.  1.
</event>
<event>
 5   0  0.2147244E+06  0.9118800E+02  0.7546771E-02  0.1180000E+00
      -11   -1    0    0    0    0  0.00000000000E+00  0.00000000000E+00  0.34996269501E-01  0.35000000000E-01  0.51099999109E-03 0. -1.
       11   -1    0    0    0    0 -0.00000000000E+00 -0.00000000000E+00 -0.34996269501E-01  0.35000000000E-01  0.51099999109E-03 0.  1.
       22    1    1    2    0    0 -0.25548290748E-02 -0.21714292184E-02  0.34838672162E-01  0.34999647633E-01  0.00000000000E+00 0. -1.
       22    1    1    2    0    0  0.25547007828E-02  0.21718666410E-02 -0.34838865034E-01  0.34999857395E-01  0.00000000000E+00 0.  1.
       22    1    1    2    0    0  0.12829195656E-06 -0.43742260033E-06  0.19287280327E-06  0.49497199480E-06  0.00000000000E+00 0. -1.
</event>
<event>
 5   0  0.2147244E+06  0.9118800E+02  0.7546771E-02  0.1180000E+00
      -11   -1    0    0    0    0  0.00000000000E+00  0.00000000000E+00  0.34996269501E-01  0.35000000000E-01  0.51099999109E-03 0. -1.
       11   -1    0    0    0    0 -0.00000000000E+00 -0.00000000000E+00 -0.34996269501E-01  0.35000000000E-01  0.51099999109E-03 0.  1.
       22    1    1    2    0    0  0.20184631986E-07  0.16886435554E-07  0.29368947883E-06  0.29486620873E-06  0.00000000000E+00 0.  1.
       22    1    1    2    0    0  0.63825308720E-02  0.23506807768E-02 -0.34332742301E-01  0.34999994205E-01  0.00000000000E+00 0.  1.
       22    1    1    2    0    0 -0.63825510566E-02 -0.23506976633E-02  0.34332448611E-01  0.34999710929E-01  0.00000000000E+00 0. -1.
</event>
<event>
 5   0  0.2147244E+06  0.9118800E+02  0.7546771E-02  0.1180000E+00
      -11   -1    0    0    0    0  0.00000000000E+00  0.00000000000E+00  0.34996269501E-01  0.35000000000E-01  0.51099999109E-03 0. -1.
       11   -1    0    0    0    0 -0.00000000000E+00 -0.00000000000E+00 -0.34996269501E-01  0.35000000000E-01  0.51099999109E-03 0. -1.
       22    1    1    2    0    0  0.33211845841E-04  0.52371471789E-03 -0.34995528252E-01  0.34999462535E-01  0.00000000000E+00 0. -1.
       22    1    1    2    0    0  0.16681561991E-05 -0.21251844971E-05  0.27512070226E-05  0.38559427294E-05  0.00000000000E+00 0. -1.
       22    1    1    2    0    0 -0.34880002040E-04 -0.52158953339E-03  0.34992777045E-01  0.34996681522E-01  0.00000000000E+00 0. -1.
</event>
<event>
 5   0  0.2147244E+06  0.9118800E+02  0.7546771E-02  0.1180000E+00
      -11   -1    0    0    0    0  0.00000000000E+00  0.00000000000E+00  0.34996269501E-01  0.35000000000E-01  0.51099999109E-03 0. -1.
       11   -1    0    0    0    0 -0.00000000000E+00 -0.00000000000E+00 -0.34996269501E-01  0.35000000000E-01  0.51099999109E-03 0.  1.
       22    1    1    2    0    0  0.62820306495E-02 -0.54934645023E-02 -0.33990545662E-01  0.34999989367E-01  0.00000000000E+00 0.  1.
       22    1    1    2    0    0 -0.62820510630E-02  0.54934426733E-02  0.33990534443E-01  0.34999978710E-01  0.00000000000E+00 0. -1.
       22    1    1    2    0    0  0.20413510270E-07  0.21829069091E-07  0.11218194604E-07  0.31922837422E-07  0.00000000000E+00 0.  1.
</event>
<event>
 5   0  0.2147244E+06  0.9118800E+02  0.7546771E-02  0.1180000E+00
      -11   -1    0    0    0    0  0.00000000000E+00  0.00000000000E+00  0.34996269501E-01  0.35000000000E-01  0.51099999109E-03 0.  1.
       11   -1    0    0    0    0 -0.00000000000E+00 -0.00000000000E+00 -0.34996269501E-01  0.35000000000E-01  0.51099999109E-03 0. -1.
       22    1    1    2    0    0 -0.30650036099E-01  0.40621394587E-02 -0.16391241766E-01  0.34994263766E-01  0.00000000000E+00 0. -1.
       22    1    1    2    0    0 -0.55176093457E-05 -0.22851154326E-05  0.98444753253E-05  0.11514315432E-04  0.00000000000E+00 0. -1.
       22    1    1    2    0    0  0.30655553709E-01 -0.40598543432E-02  0.16381397291E-01  0.34994221919E-01  0.00000000000E+00 0.  1.
</event>
<event>
 5   0  0.2147244E+06  0.9118800E+02  0.7546771E-02  0.1180000E+00
      -11   -1    0    0    0    0  0.00000000000E+00  0.00000000000E+00  0.34996269501E-01  0.35000000000E-01  0.51099999109E-03 0. -1.
       11   -1    0    0    0    0 -0.00000000000E+00 -0.00000000000E+00 -0.34996269501E-01  0.35000000000E-01  0.51099999109E-03 0.  1.
       22    1    1    2    0    0 -0.75179080544E-02  0.12938042538E-02  0.34137388488E-01  0.34979339098E-01  0.00000000000E+00 0. -1.
       22    1    1    2    0    0 -0.78518567252E-05  0.13244041847E-05  0.19232379613E-04  0.20815622164E-04  0.00000000000E+00 0. -1.
       22    1    1    2    0    0  0.75257599112E-02 -0.12951286580E-02 -0.34156620868E-01  0.34999845279E-01  0.00000000000E+00 0.  1.
</event>
<event>
 5   0  0.2147244E+06  0.9118800E+02  0.7546771E-02  0.1180000E+00
      -11   -1    0    0    0    0  0.00000000000E+00  0.00000000000E+00  0.34996269501E-01  0.35000000000E-01  0.51099999109E-03 0. -1.
       11   -1    0    0    0    0 -0.00000000000E+00 -0.00000000000E+00 -0.34996269501E-01  0.35000000000E-01  0.51099999109E-03 0.  1.
       22    1    1    2    0    0  0.16503593068E-01  0.26403625337E-01 -0.14723973495E-01  0.34442929762E-01  0.00000000000E+00 0.  1.
       22    1    1    2    0    0 -0.67248229253E-02 -0.82486179771E-02  0.79442481022E-03  0.10672115661E-01  0.00000000000E+00 0.  1.
       22    1    1    2    0    0 -0.97787701426E-02 -0.18155007360E-01  0.13929548685E-01  0.24884954577E-01  0.00000000000E+00 0. -1.
</event>
<event>
 5   0  0.2147244E+06  0.9118800E+02  0.7546771E-02  0.1180000E+00
      -11   -1    0    0    0    0  0.00000000000E+00  0.00000000000E+00  0.34996269501E-01  0.35000000000E-01  0.51099999109E-03 0. -1.
       11   -1    0    0    0    0 -0.00000000000E+00 -0.00000000000E+00 -0.34996269501E-01  0.35000000000E-01  0.51099999109E-03 0.  1.
       22    1    1    2    0    0  0.26772653693E-03  0.39546839026E-02  0.29210343847E-01  0.29478049290E-01  0.00000000000E+00 0. -1.
       22    1    1    2    0    0 -0.16580097050E-04  0.19980304427E-03  0.55297707270E-02  0.55334040563E-02  0.00000000000E+00 0. -1.
       22    1    1    2    0    0 -0.25114643988E-03 -0.41544869469E-02 -0.34740114574E-01  0.34988546654E-01  0.00000000000E+00 0.  1.
</event>
<event>
 5   0  0.2147244E+06  0.9118800E+02  0.7546771E-02  0.1180000E+00
      -11   -1    0    0    0    0  0.00000000000E+00  0.00000000000E+00  0.34996269501E-01  0.35000000000E-01  0.51099999109E-03 0. -1.
       11   -1    0    0    0    0 -0.00000000000E+00 -0.00000000000E+00 -0.34996269501E-01  0.35000000000E-01  0.51099999109E-03 0.  1.
       22    1    1    2    0    0  0.82717604028E-07  0.14963825706E-06  0.39348931394E-05  0.39386060768E-05  0.00000000000E+00 0.  1.
       22    1    1    2    0    0 -0.14033254745E-01 -0.10365611863E-01  0.30337556535E-01  0.34996363876E-01  0.00000000000E+00 0. -1.
       22    1    1    2    0    0  0.14033172028E-01  0.10365462225E-01 -0.30341491428E-01  0.34999697518E-01  0.00000000000E+00 0.  1.
</event>
<event>
 5   0  0.2147244E+06  0.9118800E+02  0.7546771E-02  0.1180000E+00
      -11   -1    0    0    0    0  0.00000000000E+00  0.00000000000E+00  0.34996269501E-01  0.35000000000E-01  0.51099999109E-03 0. -1.
       11   -1    0    0    0    0 -0.00000000000E+00 -0.00000000000E+00 -0.34996269501E-01  0.35000000000E-01  0.51099999109E-03 0.  1.
       22    1    1    2    0    0  0.93346025200E-03  0.80371211688E-03  0.34978313974E-01  0.34999996424E-01  0.00000000000E+00 0. -1.
       22    1    1    2    0    0 -0.49683128296E-08  0.80600778324E-09  0.18901675614E-08  0.53764778740E-08  0.00000000000E+00 0.  1.
       22    1    1    2    0    0 -0.93345528369E-03 -0.80371292288E-03 -0.34978315865E-01  0.34999998199E-01  0.00000000000E+00 0.  1.
</event>
<event>
 5   0  0.2147244E+06  0.9118800E+02  0.7546771E-02  0.1180000E+00
      -11   -1    0    0    0    0  0.00000000000E+00  0.00000000000E+00  0.34996269501E-01  0.35000000000E-01  0.51099999109E-03 0. -1.
       11   -1    0    0    0    0 -0.00000000000E+00 -0.00000000000E+00 -0.34996269501E-01  0.35000000000E-01  0.51099999109E-03 0.  1.
       22    1    1    2    0    0 -0.16273644764E-02  0.23314512786E-03  0.34917091734E-01  0.34955771583E-01  0.00000000000E+00 0. -1.
       22    1    1    2    0    0  0.89704737946E-03 -0.11052268926E-02 -0.27834622847E-01  0.27870996565E-01  0.00000000000E+00 0.  1.
       22    1    1    2    0    0  0.73031709692E-03  0.87208176474E-03 -0.70824688867E-02  0.71732318516E-02  0.00000000000E+00 0. -1.
</event>
<event>
 5   0  0.2147244E+06  0.9118800E+02  0.7546771E-02  0.1180000E+00
      -11   -1    0    0    0    0  0.00000000000E+00  0.00000000000E+00  0.34996269501E-01  0.35000000000E-01  0.51099999109E-03 0. -1.
       11   -1    0    0    0    0 -0.00000000000E+00 -0.00000000000E+00 -0.34996269501E-01  0.35000000000E-01  0.51099999109E-03 0.  1.
       22    1    1    2    0    0 -0.35927996924E-06 -0.16836687506E-06  0.30271068031E-05  0.30529993610E-05  0.00000000000E+00 0.  1.
       22    1    1    2    0    0 -0.47262262642E-02 -0.51555879689E-02  0.34290953246E-01  0.34996953818E-01  0.00000000000E+00 0. -1.
       22    1    1    2    0    0  0.47265855441E-02  0.51557563358E-02 -0.34293980353E-01  0.34999993182E-01  0.00000000000E+00 0.  1.
</event>
<event>
 5   0  0.2147244E+06  0.9118800E+02  0.7546771E-02  0.1180000E+00
      -11   -1    0    0    0    0  0.00000000000E+00  0.00000000000E+00  0.34996269501E-01  0.35000000000E-01  0.51099999109E-03 0. -1.
       11   -1    0    0    0    0 -0.00000000000E+00 -0.00000000000E+00 -0.34996269501E-01  0.35000000000E-01  0.51099999109E-03 0.  1.
       22    1    1    2    0    0  0.64474441444E-03 -0.39310087696E-02 -0.34742923661E-01  0.34970548606E-01  0.00000000000E+00 0.  1.
       22    1    1    2    0    0 -0.13099262856E-02  0.29534784601E-02  0.22730297081E-01  0.22958774951E-01  0.00000000000E+00 0. -1.
       22    1    1    2    0    0  0.66518187116E-03  0.97753030957E-03  0.12012626580E-01  0.12070676443E-01  0.00000000000E+00 0. -1.
</event>
<event>
 5   0  0.2147244E+06  0.9118800E+02  0.7546771E-02  0.1180000E+00
      -11   -1    0    0    0    0  0.00000000000E+00  0.00000000000E+00  0.34996269501E-01  0.35000000000E-01  0.51099999109E-03 0.  1.
       11   -1    0    0    0    0 -0.00000000000E+00 -0.00000000000E+00 -0.34996269501E-01  0.35000000000E-01  0.51099999109E-03 0. -1.
       22    1    1    2    0    0 -0.82307841627E-02 -0.20445881722E-02 -0.18499990061E-01  0.20351309073E-01  0.00000000000E+00 0.  1.
       22    1    1    2    0    0 -0.97986793523E-03  0.97012805069E-02 -0.12825678995E-01  0.16111270165E-01  0.00000000000E+00 0. -1.
       22    1    1    2    0    0  0.92106520979E-02 -0.76566923348E-02  0.31325669056E-01  0.33537420762E-01  0.00000000000E+00 0.  1.
</event>
<event>
 5   0  0.2147244E+06  0.9118800E+02  0.7546771E-02  0.1180000E+00
      -11   -1    0    0    0    0  0.00000000000E+00  0.00000000000E+00  0.34996269501E-01  0.35000000000E-01  0.51099999109E-03 0. -1.
       11   -1    0    0    0    0 -0.00000000000E+00 -0.00000000000E+00 -0.34996269501E-01  0.35000000000E-01  0.51099999109E-03 0.  1.
       22    1    1    2    0    0 -0.60481877832E-03 -0.43997429692E-02  0.34660551647E-01  0.34943917702E-01  0.00000000000E+00 0. -1.
       22    1    1    2    0    0  0.16493431828E-04 -0.29959636856E-03 -0.63284472834E-03  0.70037309167E-03  0.00000000000E+00 0. -1.
       22    1    1    2    0    0  0.58832534650E-03  0.46993393377E-02 -0.34027706918E-01  0.34355709206E-01  0.00000000000E+00 0.  1.
</event>
<event>
 5   0  0.2147244E+06  0.9118800E+02  0.7546771E-02  0.1180000E+00
      -11   -1    0    0    0    0  0.00000000000E+00  0.00000000000E+00  0.34996269501E-01  0.35000000000E-01  0.51099999109E-03 0. -1.
       11   -1    0    0    0    0 -0.00000000000E+00 -0.00000000000E+00 -0.34996269501E-01  0.35000000000E-01  0.51099999109E-03 0.  1.
       22    1    1    2    0    0  0.24000505970E-02 -0.36986740271E-02  0.31183498259E-02  0.54004201748E-02  0.00000000000E+00 0.  1.
       22    1    1    2    0    0 -0.77376087076E-03 -0.87384949743E-03 -0.33657241196E-01  0.33677473239E-01  0.00000000000E+00 0.  1.
       22    1    1    2    0    0 -0.16262897263E-02  0.45725235245E-02  0.30538891370E-01  0.30922106587E-01  0.00000000000E+00 0. -1.
</event>
<event>
 5   0  0.2147244E+06  0.9118800E+02  0.7546771E-02  0.1180000E+00
      -11   -1    0    0    0    0  0.00000000000E+00  0.00000000000E+00  0.34996269501E-01  0.35000000000E-01  0.51099999109E-03 0.  1.
       11   -1    0    0    0    0 -0.00000000000E+00 -0.00000000000E+00 -0.34996269501E-01  0.35000000000E-01  0.51099999109E-03 0.  1.
       22    1    1    2    0    0  0.62776749016E-03  0.29105113931E-03  0.34993143546E-01  0.34999984257E-01  0.00000000000E+00 0.  1.
       22    1    1    2    0    0 -0.62776298973E-03 -0.29104737460E-03 -0.34993158801E-01  0.34999999398E-01  0.00000000000E+00 0.  1.
       22    1    1    2    0    0 -0.45004269168E-08 -0.37647070794E-08  0.15255392802E-07  0.16344842348E-07  0.00000000000E+00 0.  1.
</event>
<event>
 5   0  0.2147244E+06  0.9118800E+02  0.7546771E-02  0.1180000E+00
      -11   -1    0    0    0    0  0.00000000000E+00  0.00000000000E+00  0.34996269501E-01  0.35000000000E-01  0.51099999109E-03 0.  1.
       11   -1    0    0    0    0 -0.00000000000E+00 -0.00000000000E+00 -0.34996269501E-01  0.35000000000E-01  0.51099999109E-03 0. -1.
       22    1    1    2    0    0 -0.11688831479E-01  0.22674614430E-01 -0.23800611314E-01  0.34888909696E-01  0.00000000000E+00 0. -1.
       22    1    1    2    0    0  0.11749485287E-01 -0.22645080291E-01  0.23921482965E-01  0.34972666658E-01  0.00000000000E+00 0.  1.
       22    1    1    2    0    0 -0.60653807996E-04 -0.29534138571E-04 -0.12087165127E-03  0.13842364627E-03  0.00000000000E+00 0. -1.
</event>
<event>
 5   0  0.2147244E+06  0.9118800E+02  0.7546771E-02  0.1180000E+00
      -11   -1    0    0    0    0  0.00000000000E+00  0.00000000000E+00  0.34996269501E-01  0.35000000000E-01  0.51099999109E-03 0. -1.
       11   -1    0    0    0    0 -0.00000000000E+00 -0.00000000000E+00 -0.34996269501E-01  0.35000000000E-01  0.51099999109E-03 0. -1.
       22    1    1    2    0    0  0.98696346904E-09  0.12635935020E-09 -0.35000453615E-01  0.34999570819E-01  0.00000000000E+00 0. -1.
       22    1    1    2    0    0  0.14917910110E-04  0.19099161082E-05  0.13131627276E-03  0.13217471510E-03  0.00000000000E+00 0. -1.
       22    1    1    2    0    0 -0.14918897073E-04 -0.19100424676E-05  0.34869137343E-01  0.34868254466E-01  0.00000000000E+00 0. -1.
</event>
<event>
 5   0  0.2147244E+06  0.9118800E+02  0.7546771E-02  0.1180000E+00
      -11   -1    0    0    0    0  0.00000000000E+00  0.00000000000E+00  0.34996269501E-01  0.35000000000E-01  0.51099999109E-03 0.  1.
       11   -1    0    0    0    0 -0.00000000000E+00 -0.00000000000E+00 -0.34996269501E-01  0.35000000000E-01  0.51099999109E-03 0.  1.
       22    1    1    2    0    0  0.24408792538E-03 -0.83376998146E-03 -0.34683118485E-01  0.34693997451E-01  0.00000000000E+00 0.  1.
       22    1    1    2    0    0 -0.31461806894E-03  0.50053852423E-03 -0.29283208453E-04  0.59192976766E-03  0.00000000000E+00 0. -1.
       22    1    1    2    0    0  0.70530143556E-04  0.33323145723E-03  0.34712401694E-01  0.34714072781E-01  0.00000000000E+00 0.  1.
</event>
<event>
 5   0  0.2147244E+06  0.9118800E+02  0.7546771E-02  0.1180000E+00
      -11   -1    0    0    0    0  0.00000000000E+00  0.00000000000E+00  0.34996269501E-01  0.35000000000E-01  0.51099999109E-03 0. -1.
       11   -1    0    0    0    0 -0.00000000000E+00 -0.00000000000E+00 -0.34996269501E-01  0.35000000000E-01  0.51099999109E-03 0.  1.
       22    1    1    2    0    0  0.20867288922E-02  0.98414315139E-02 -0.33216821169E-01  0.34706849761E-01  0.00000000000E+00 0.  1.
       22    1    1    2    0    0 -0.15962044910E-02  0.30476264708E-03  0.29607962221E-02  0.33774344283E-02  0.00000000000E+00 0. -1.
       22    1    1    2    0    0 -0.49052440117E-03 -0.10146194161E-01  0.30256024947E-01  0.31915715811E-01  0.00000000000E+00 0. -1.
</event>
<event>
 5   0  0.2147244E+06  0.9118800E+02  0.7546771E-02  0.1180000E+00
      -11   -1    0    0    0    0  0.00000000000E+00  0.00000000000E+00  0.34996269501E-01  0.35000000000E-01  0.51099999109E-03 0. -1.
       11   -1    0    0    0    0 -0.00000000000E+00 -0.00000000000E+00 -0.34996269501E-01  0.35000000000E-01  0.51099999109E-03 0.  1.
       22    1    1    2    0    0  0.89368081113E-03  0.21825306697E-03  0.13165530341E-01  0.13197631945E-01  0.00000000000E+00 0. -1.
       22    1    1    2    0    0 -0.14043129787E-02 -0.10082440760E-02  0.21777835014E-01  0.21846344064E-01  0.00000000000E+00 0.  1.
       22    1    1    2    0    0  0.51063216753E-03  0.78999100905E-03 -0.34943365355E-01  0.34956023992E-01  0.00000000000E+00 0.  1.
</event>
<event>
 5   0  0.2147244E+06  0.9118800E+02  0.7546771E-02  0.1180000E+00
      -11   -1    0    0    0    0  0.00000000000E+00  0.00000000000E+00  0.34996269501E-01  0.35000000000E-01  0.51099999109E-03 0. -1.
       11   -1    0    0    0    0 -0.00000000000E+00 -0.00000000000E+00 -0.34996269501E-01  0.35000000000E-01  0.51099999109E-03 0.  1.
       22    1    1    2    0    0  0.46659408195E-03 -0.52232594139E-02 -0.34604910638E-01  0.34999999846E-01  0.00000000000E+00 0.  1.
       22    1    1    2    0    0  0.60734702693E-09  0.15838596910E-08  0.25791971826E-08  0.30870277029E-08  0.00000000000E+00 0.  1.
       22    1    1    2    0    0 -0.46659468930E-03  0.52232578301E-02  0.34604908059E-01  0.34999997067E-01  0.00000000000E+00 0. -1.
</event>
<event>
 5   0  0.2147244E+06  0.9118800E+02  0.7546771E-02  0.1180000E+00
      -11   -1    0    0    0    0  0.00000000000E+00  0.00000000000E+00  0.34996269501E-01  0.35000000000E-01  0.51099999109E-03 0. -1.
       11   -1    0    0    0    0 -0.00000000000E+00 -0.00000000000E+00 -0.34996269501E-01  0.35000000000E-01  0.51099999109E-03 0.  1.
       22    1    1    2    0    0  0.35580438053E-02 -0.78465649269E-02 -0.33659796862E-01  0.34744930302E-01  0.00000000000E+00 0.  1.
       22    1    1    2    0    0 -0.37803248261E-02  0.76170243073E-02  0.33837377473E-01  0.34889511739E-01  0.00000000000E+00 0. -1.
       22    1    1    2    0    0  0.22228102073E-03  0.22954061957E-03 -0.17758061103E-03  0.36555795932E-03  0.00000000000E+00 0.  1.
</event>
<event>
 5   0  0.2147244E+06  0.9118800E+02  0.7546771E-02  0.1180000E+00
      -11   -1    0    0    0    0  0.00000000000E+00  0.00000000000E+00  0.34996269501E-01  0.35000000000E-01  0.51099999109E-03 0. -1.
       11   -1    0    0    0    0 -0.00000000000E+00 -0.00000000000E+00 -0.34996269501E-01  0.35000000000E-01  0.51099999109E-03 0.  1.
       22    1    1    2    0    0  0.28840013950E-03  0.30168616789E-03  0.71295881619E-02  0.71417936502E-02  0.00000000000E+00 0. -1.
       22    1    1    2    0    0  0.97115633061E-02  0.27558365887E-01  0.70182754439E-02  0.30050527157E-01  0.00000000000E+00 0. -1.
       22    1    1    2    0    0 -0.99999634456E-02 -0.27860052055E-01 -0.14147863606E-01  0.32807679193E-01  0.00000000000E+00 0.  1.
</event>
<event>
 5   0  0.2147244E+06  0.9118800E+02  0.7546771E-02  0.1180000E+00
      -11   -1    0    0    0    0  0.00000000000E+00  0.00000000000E+00  0.34996269501E-01  0.35000000000E-01  0.51099999109E-03 0.  1.
       11   -1    0    0    0    0 -0.00000000000E+00 -0.00000000000E+00 -0.34996269501E-01  0.35000000000E-01  0.51099999109E-03 0. -1.
       22    1    1    2    0    0  0.39223796037E-03  0.30564695315E-03  0.24581824395E-02  0.25079736010E-02  0.00000000000E+00 0.  1.
       22    1    1    2    0    0 -0.19401778946E-02  0.22922641069E-01 -0.25771734836E-01  0.34545536330E-01  0.00000000000E+00 0. -1.
       22    1    1    2    0    0  0.15479399342E-02 -0.23228288023E-01  0.23313552397E-01  0.32946490069E-01  0.00000000000E+00 0.  1.
</event>
<event>
 5   0  0.2147244E+06  0.9118800E+02  0.7546771E-02  0.1180000E+00
      -11   -1    0    0    0    0  0.00000000000E+00  0.00000000000E+00  0.34996269501E-01  0.35000000000E-01  0.51099999109E-03 0. -1.
       11   -1    0    0    0    0 -0.00000000000E+00 -0.00000000000E+00 -0.34996269501E-01  0.35000000000E-01  0.51099999109E-03 0.  1.
       22    1    1    2    0    0  0.50092886420E-04  0.56801447369E-04  0.96489059284E-03  0.96785823231E-03  0.00000000000E+00 0.  1.
       22    1    1    2    0    0  0.29932318424E-02  0.21606954711E-02  0.33831643617E-01  0.34032457326E-01  0.00000000000E+00 0. -1.
       22    1    1    2    0    0 -0.30433247288E-02 -0.22174969184E-02 -0.34796534210E-01  0.34999684442E-01  0.00000000000E+00 0.  1.
</event>
<event>
 5   0  0.2147244E+06  0.9118800E+02  0.7546771E-02  0.1180000E+00
      -11   -1    0    0    0    0  0.00000000000E+00  0.00000000000E+00  0.34996269501E-01  0.35000000000E-01  0.51099999109E-03 0. -1.
       11   -1    0    0    0    0 -0.00000000000E+00 -0.00000000000E+00 -0.34996269501E-01  0.35000000000E-01  0.51099999109E-03 0.  1.
       22    1    1    2    0    0 -0.81923476637E-02  0.93617615493E-02 -0.32713860083E-01  0.34999339723E-01  0.00000000000E+00 0.  1.
       22    1    1    2    0    0 -0.18730484683E-05  0.31997719407E-06  0.25515016674E-05  0.31813293963E-05  0.00000000000E+00 0. -1.
       22    1    1    2    0    0  0.81942207121E-02 -0.93620815265E-02  0.32711308581E-01  0.34997478947E-01  0.00000000000E+00 0. -1.
</event>
<event>
 5   0  0.2147244E+06  0.9118800E+02  0.7546771E-02  0.1180000E+00
      -11   -1    0    0    0    0  0.00000000000E+00  0.00000000000E+00  0.34996269501E-01  0.35000000000E-01  0.51099999109E-03 0.  1.
       11   -1    0    0    0    0 -0.00000000000E+00 -0.00000000000E+00 -0.34996269501E-01  0.35000000000E-01  0.51099999109E-03 0. -1.
       22    1    1    2    0    0 -0.84498899828E-02  0.82338318236E-02  0.31939789529E-01  0.34049181816E-01  0.00000000000E+00 0.  1.
       22    1    1    2    0    0  0.84451476216E-02 -0.80894316617E-02 -0.32932716294E-01  0.34947435177E-01  0.00000000000E+00 0. -1.
       22    1    1    2    0    0  0.47423612059E-05 -0.14440016195E-03  0.99292676535E-03  0.10033830067E-02  0.00000000000E+00 0.  1.
</event>
<event>
 5   0  0.2147244E+06  0.9118800E+02  0.7546771E-02  0.1180000E+00
      -11   -1    0    0    0    0  0.00000000000E+00  0.00000000000E+00  0.34996269501E-01  0.35000000000E-01  0.51099999109E-03 0.  1.
       11   -1    0    0    0    0 -0.00000000000E+00 -0.00000000000E+00 -0.34996269501E-01  0.35000000000E-01  0.51099999109E-03 0. -1.
       22    1    1    2    0    0  0.11665867674E-01  0.87031666113E-02 -0.30744021908E-01  0.34015179858E-01  0.00000000000E+00 0. -1.
       22    1    1    2    0    0  0.75537827373E-03 -0.28716307483E-03  0.11758977143E-01  0.11786712961E-01  0.00000000000E+00 0.  1.
       22    1    1    2    0    0 -0.12421245948E-01 -0.84160035364E-02  0.18985044765E-01  0.24198107182E-01  0.00000000000E+00 0.  1.
</event>
<event>
 5   0  0.2147244E+06  0.9118800E+02  0.7546771E-02  0.1180000E+00
      -11   -1    0    0    0    0  0.00000000000E+00  0.00000000000E+00  0.34996269501E-01  0.35000000000E-01  0.51099999109E-03 0. -1.
       11   -1    0    0    0    0 -0.00000000000E+00 -0.00000000000E+00 -0.34996269501E-01  0.35000000000E-01  0.51099999109E-03 0.  1.
       22    1    1    2    0    0  0.98514789666E-02  0.96687500756E-03 -0.33571021058E-01  0.34999999143E-01  0.00000000000E+00 0.  1.
       22    1    1    2    0    0 -0.98514816947E-02 -0.96687456053E-03  0.33571002638E-01  0.34999982230E-01  0.00000000000E+00 0. -1.
       22    1    1    2    0    0  0.27280621669E-08 -0.44702542119E-09  0.18420675117E-07  0.18626954305E-07  0.00000000000E+00 0. -1.
</event>
<event>
 5   0  0.2147244E+06  0.9118800E+02  0.7546771E-02  0.1180000E+00
      -11   -1    0    0    0    0  0.00000000000E+00  0.00000000000E+00  0.34996269501E-01  0.35000000000E-01  0.51099999109E-03 0.  1.
       11   -1    0    0    0    0 -0.00000000000E+00 -0.00000000000E+00 -0.34996269501E-01  0.35000000000E-01  0.51099999109E-03 0. -1.
       22    1    1    2    0    0  0.66881567062E-02  0.27571058722E-02  0.83003881305E-02  0.11010427605E-01  0.00000000000E+00 0. -1.
       22    1    1    2    0    0 -0.19827261905E-02  0.17454102386E-01  0.18224098970E-01  0.25311947308E-01  0.00000000000E+00 0.  1.
       22    1    1    2    0    0 -0.47054305157E-02 -0.20211208258E-01 -0.26524487101E-01  0.33677625088E-01  0.00000000000E+00 0. -1.
</event>
<event>
 5   0  0.2147244E+06  0.9118800E+02  0.7546771E-02  0.1180000E+00
      -11   -1    0    0    0    0  0.00000000000E+00  0.00000000000E+00  0.34996269501E-01  0.35000000000E-01  0.51099999109E-03 0. -1.
       11   -1    0    0    0    0 -0.00000000000E+00 -0.00000000000E+00 -0.34996269501E-01  0.35000000000E-01  0.51099999109E-03 0. -1.
       22    1    1    2    0    0 -0.53603545864E-09 -0.13986008581E-06  0.18622609804E-05  0.18675055797E-05  0.00000000000E+00 0. -1.
       22    1    1    2    0    0 -0.44883527138E-03  0.22618309195E-03  0.34994526541E-01  0.34998135661E-01  0.00000000000E+00 0. -1.
       22    1    1    2    0    0  0.44883580741E-03 -0.22604323187E-03 -0.34996388802E-01  0.34999996833E-01  0.00000000000E+00 0. -1.
</event>
<event>
 5   0  0.2147244E+06  0.9118800E+02  0.7546771E-02  0.1180000E+00
      -11   -1    0    0    0    0  0.00000000000E+00  0.00000000000E+00  0.34996269501E-01  0.35000000000E-01  0.51099999109E-03 0.  1.
       11   -1    0    0    0    0 -0.00000000000E+00 -0.00000000000E+00 -0.34996269501E-01  0.35000000000E-01  0.51099999109E-03 0. -1.
       22    1    1    2    0    0  0.12913605779E-01 -0.11791707782E-01  0.27921497425E-01  0.32945646224E-01  0.00000000000E+00 0.  1.
       22    1    1    2    0    0 -0.25093287401E-02  0.40841685589E-03  0.21039419880E-02  0.33000162035E-02  0.00000000000E+00 0. -1.
       22    1    1    2    0    0 -0.10404277039E-01  0.11383290926E-01 -0.30025439413E-01  0.33754337573E-01  0.00000000000E+00 0. -1.
</event>
<event>
 5   0  0.2147244E+06  0.9118800E+02  0.7546771E-02  0.1180000E+00
      -11   -1    0    0    0    0  0.00000000000E+00  0.00000000000E+00  0.34996269501E-01  0.35000000000E-01  0.51099999109E-03 0.  1.
       11   -1    0    0    0    0 -0.00000000000E+00 -0.00000000000E+00 -0.34996269501E-01  0.35000000000E-01  0.51099999109E-03 0. -1.
       22    1    1    2    0    0 -0.54025879606E-03 -0.74729890855E-03 -0.75082787743E-03  0.11891500019E-02  0.00000000000E+00 0. -1.
       22    1    1    2    0    0  0.36061221323E-02 -0.43410037865E-02 -0.33538875431E-01  0.34010360126E-01  0.00000000000E+00 0. -1.
       22    1    1    2    0    0 -0.30658633362E-02  0.50883026950E-02  0.34289703309E-01  0.34800489872E-01  0.00000000000E+00 0.  1.
</event>
<event>
 5   0  0.2147244E+06  0.9118800E+02  0.7546771E-02  0.1180000E+00
      -11   -1    0    0    0    0  0.00000000000E+00  0.00000000000E+00  0.34996269501E-01  0.35000000000E-01  0.51099999109E-03 0. -1.
       11   -1    0    0    0    0 -0.00000000000E+00 -0.00000000000E+00 -0.34996269501E-01  0.35000000000E-01  0.51099999109E-03 0.  1.
       22    1    1    2    0    0  0.36422187261E-03  0.26626028166E-02 -0.34896673028E-01  0.34999998568E-01  0.00000000000E+00 0.  1.
       22    1    1    2    0    0 -0.36423684146E-03 -0.26625992077E-02  0.34895704312E-01  0.34999032593E-01  0.00000000000E+00 0. -1.
       22    1    1    2    0    0  0.14968852835E-07 -0.36089506176E-08  0.96871679628E-06  0.96883916233E-06  0.00000000000E+00 0. -1.
</event>
<event>
 5   0  0.2147244E+06  0.9118800E+02  0.7546771E-02  0.1180000E+00
      -11   -1    0    0    0    0  0.00000000000E+00  0.00000000000E+00  0.34996269501E-01  0.35000000000E-01  0.51099999109E-03 0. -1.
       11   -1    0    0    0    0 -0.00000000000E+00 -0.00000000000E+00 -0.34996269501E-01  0.35000000000E-01  0.51099999109E-03 0.  1.
       22    1    1    2    0    0  0.28402824376E-05  0.21012460773E-04  0.14701929810E-04  0.25801888540E-04  0.00000000000E+00 0. -1.
       22    1    1    2    0    0  0.62627739669E-02 -0.34409205133E-02 -0.34257739685E-01  0.34995071082E-01  0.00000000000E+00 0.  1.
       22    1    1    2    0    0 -0.62656142493E-02  0.34199080525E-02  0.34243037755E-01  0.34979127029E-01  0.00000000000E+00 0. -1.
</event>
<event>
 5   0  0.2147244E+06  0.9118800E+02  0.7546771E-02  0.1180000E+00
      -11   -1    0    0    0    0  0.00000000000E+00  0.00000000000E+00  0.34996269501E-01  0.35000000000E-01  0.51099999109E-03 0. -1.
       11   -1    0    0    0    0 -0.00000000000E+00 -0.00000000000E+00 -0.34996269501E-01  0.35000000000E-01  0.51099999109E-03 0.  1.
       22    1    1    2    0    0 -0.97744851276E-02  0.32077240658E-01 -0.60831056345E-02  0.34080699844E-01  0.00000000000E+00 0.  1.
       22    1    1    2    0    0  0.48153203740E-04 -0.10991181084E-04 -0.15510066177E-02  0.15517928551E-02  0.00000000000E+00 0.  1.
       22    1    1    2    0    0  0.97263319239E-02 -0.32066249476E-01  0.76341122522E-02  0.34367507301E-01  0.00000000000E+00 0. -1.
</event>
<event>
 5   0  0.2147244E+06  0.9118800E+02  0.7546771E-02  0.1180000E+00
      -11   -1    0    0    0    0  0.00000000000E+00  0.00000000000E+00  0.34996269501E-01  0.35000000000E-01  0.51099999109E-03 0.  1.
       11   -1    0    0    0    0 -0.00000000000E+00 -0.00000000000E+00 -0.34996269501E-01  0.35000000000E-01  0.51099999109E-03 0. -1.
       22    1    1    2    0    0 -0.11615620356E-01  0.65315677187E-02 -0.11121541679E-01  0.17357208948E-01  0.00000000000E+00 0. -1.
       22    1    1    2    0    0  0.16756290714E-02 -0.58941675710E-02 -0.19501001020E-01  0.20441085708E-01  0.00000000000E+00 0.  1.
       22    1    1    2    0    0  0.99399912849E-02 -0.63740014768E-03  0.30622542700E-01  0.32201705344E-01  0.00000000000E+00 0.  1.
</event>
<event>
 5   0  0.2147244E+06  0.9118800E+02  0.7546771E-02  0.1180000E+00
      -11   -1    0    0    0    0  0.00000000000E+00  0.00000000000E+00  0.34996269501E-01  0.35000000000E-01  0.51099999109E-03 0.  1.
       11   -1    0    0    0    0 -0.00000000000E+00 -0.00000000000E+00 -0.34996269501E-01  0.35000000000E-01  0.51099999109E-03 0.  1.
       22    1    1    2    0    0 -0.59009936054E-05  0.27804947452E-04  0.34840587868E-01  0.34840133524E-01  0.00000000000E+00 0.  1.
       22    1    1    2    0    0  0.35520896785E-09 -0.16737124874E-08 -0.34999195820E-01  0.34998731992E-01  0.00000000000E+00 0.  1.
       22    1    1    2    0    0  0.59006383965E-05 -0.27803273740E-04  0.15860795203E-03  0.16113448424E-03  0.00000000000E+00 0. -1.
</event>
<event>
 5   0  0.2147244E+06  0.9118800E+02  0.7546771E-02  0.1180000E+00
      -11   -1    0    0    0    0  0.00000000000E+00  0.00000000000E+00  0.34996269501E-01  0.35000000000E-01  0.51099999109E-03 0.  1.
       11   -1    0    0    0    0 -0.00000000000E+00 -0.00000000000E+00 -0.34996269501E-01  0.35000000000E-01  0.51099999109E-03 0. -1.
       22    1    1    2    0    0  0.42438742473E-05 -0.13134213358E-03 -0.61531116951E-03  0.62918725500E-03  0.00000000000E+00 0. -1.
       22    1    1    2    0    0  0.72442859595E-02  0.98628300809E-02 -0.32166281016E-01  0.34415472257E-01  0.00000000000E+00 0. -1.
       22    1    1    2    0    0 -0.72485298338E-02 -0.97314879473E-02  0.32781592186E-01  0.34955340488E-01  0.00000000000E+00 0.  1.
</event>
<event>
 5   0  0.2147244E+06  0.9118800E+02  0.7546771E-02  0.1180000E+00
      -11   -1    0    0    0    0  0.00000000000E+00  0.00000000000E+00  0.34996269501E-01  0.35000000000E-01  0.51099999109E-03 0.  1.
       11   -1    0    0    0    0 -0.00000000000E+00 -0.00000000000E+00 -0.34996269501E-01  0.35000000000E-01  0.51099999109E-03 0.  1.
       22    1    1    2    0    0 -0.50933951655E-03  0.11810452317E-02 -0.34976313288E-01  0.34999954083E-01  0.00000000000E+00 0.  1.
       22    1    1    2    0    0  0.16197112003E-06  0.10935683697E-05  0.12492783666E-04  0.12541601578E-04  0.00000000000E+00 0.  1.
       22    1    1    2    0    0  0.50917754543E-03 -0.11821388000E-02  0.34963820505E-01  0.34987504315E-01  0.00000000000E+00 0.  1.
</event>
<event>
 5   0  0.2147244E+06  0.9118800E+02  0.7546771E-02  0.1180000E+00
      -11   -1    0    0    0    0  0.00000000000E+00  0.00000000000E+00  0.34996269501E-01  0.35000000000E-01  0.51099999109E-03 0.  1.
       11   -1    0    0    0    0 -0.00000000000E+00 -0.00000000000E+00 -0.34996269501E-01  0.35000000000E-01  0.51099999109E-03 0. -1.
       22    1    1    2    0    0 -0.49876215564E-02 -0.32161070814E-01  0.12812166771E-01  0.34976598778E-01  0.00000000000E+00 0.  1.
       22    1    1    2    0    0 -0.56494570612E-06  0.33935252708E-05  0.36347806233E-04  0.36510247813E-04  0.00000000000E+00 0.  1.
       22    1    1    2    0    0  0.49881865021E-02  0.32157677289E-01 -0.12848514577E-01  0.34986890974E-01  0.00000000000E+00 0. -1.
</event>
<event>
 5   0  0.2147244E+06  0.9118800E+02  0.7546771E-02  0.1180000E+00
      -11   -1    0    0    0    0  0.00000000000E+00  0.00000000000E+00  0.34996269501E-01  0.35000000000E-01  0.51099999109E-03 0. -1.
       11   -1    0    0    0    0 -0.00000000000E+00 -0.00000000000E+00 -0.34996269501E-01  0.35000000000E-01  0.51099999109E-03 0.  1.
       22    1    1    2    0    0  0.22150260010E-01 -0.98184596046E-02  0.25250029967E-01  0.34994287832E-01  0.00000000000E+00 0. -1.
       22    1    1    2    0    0 -0.14309472668E-05  0.43501113079E-06  0.71428277540E-05  0.72977279401E-05  0.00000000000E+00 0. -1.
       22    1    1    2    0    0 -0.22148829063E-01  0.98180245934E-02 -0.25257172795E-01  0.34998414440E-01  0.00000000000E+00 0.  1.
</event>
<event>
 5   0  0.2147244E+06  0.9118800E+02  0.7546771E-02  0.1180000E+00
      -11   -1    0    0    0    0  0.00000000000E+00  0.00000000000E+00  0.34996269501E-01  0.35000000000E-01  0.51099999109E-03 0.  1.
       11   -1    0    0    0    0 -0.00000000000E+00 -0.00000000000E+00 -0.34996269501E-01  0.35000000000E-01  0.51099999109E-03 0. -1.
       22    1    1    2    0    0  0.23434492657E-03 -0.65825368648E-03 -0.34993022462E-01  0.34999997664E-01  0.00000000000E+00 0. -1.
       22    1    1    2    0    0 -0.23435152765E-03  0.65825342180E-03  0.34993020067E-01  0.34999995309E-01  0.00000000000E+00 0.  1.
       22    1    1    2    0    0  0.66010799929E-08  0.26468243312E-09  0.23951683323E-08  0.70271719207E-08  0.00000000000E+00 0.  1.
</event>
<event>
 5   0  0.2147244E+06  0.9118800E+02  0.7546771E-02  0.1180000E+00
      -11   -1    0    0    0    0  0.00000000000E+00  0.00000000000E+00  0.34996269501E-01  0.35000000000E-01  0.51099999109E-03 0. -1.
       11   -1    0    0    0    0 -0.00000000000E+00 -0.00000000000E+00 -0.34996269501E-01  0.35000000000E-01  0.51099999109E-03 0. -1.
       22    1    1    2    0    0  0.72052847973E-03  0.39404054048E-03 -0.34969992630E-01  0.34979634272E-01  0.00000000000E+00 0. -1.
       22    1    1    2    0    0 -0.65788458917E-03 -0.42136539363E-03  0.34934723026E-01  0.34943457668E-01  0.00000000000E+00 0. -1.
       22    1    1    2    0    0 -0.62643890564E-04  0.27324853149E-04  0.35269604882E-04  0.76908059741E-04  0.00000000000E+00 0. -1.
</event>
<event>
 5   0  0.2147244E+06  0.9118800E+02  0.7546771E-02  0.1180000E+00
      -11   -1    0    0    0    0  0.00000000000E+00  0.00000000000E+00  0.34996269501E-01  0.35000000000E-01  0.51099999109E-03 0.  1.
       11   -1    0    0    0    0 -0.00000000000E+00 -0.00000000000E+00 -0.34996269501E-01  0.35000000000E-01  0.51099999109E-03 0. -1.
       22    1    1    2    0    0  0.70995804036E-02 -0.39667625830E-03  0.34253066285E-01  0.34983338089E-01  0.00000000000E+00 0.  1.
       22    1    1    2    0    0 -0.47975339382E-04 -0.12161589579E-03 -0.21228524190E-03  0.24931322313E-03  0.00000000000E+00 0. -1.
       22    1    1    2    0    0 -0.70516050642E-02  0.51829215408E-03 -0.34040781043E-01  0.34767348687E-01  0.00000000000E+00 0. -1.
</event>
<event>
 5   0  0.2147244E+06  0.9118800E+02  0.7546771E-02  0.1180000E+00
      -11   -1    0    0    0    0  0.00000000000E+00  0.00000000000E+00  0.34996269501E-01  0.35000000000E-01  0.51099999109E-03 0. -1.
       11   -1    0    0    0    0 -0.00000000000E+00 -0.00000000000E+00 -0.34996269501E-01  0.35000000000E-01  0.51099999109E-03 0.  1.
       22    1    1    2    0    0  0.46771992771E-02  0.56905097052E-03 -0.27131648172E-01  0.27537725843E-01  0.00000000000E+00 0.  1.
       22    1    1    2    0    0 -0.47699737238E-02 -0.22933943211E-03  0.34628963702E-01  0.34956692821E-01  0.00000000000E+00 0. -1.
       22    1    1    2    0    0  0.92774446715E-04 -0.33971153841E-03 -0.74973155300E-02  0.75055813355E-02  0.00000000000E+00 0.  1.
</event>
<event>
 5   0  0.2147244E+06  0.9118800E+02  0.7546771E-02  0.1180000E+00
      -11   -1    0    0    0    0  0.00000000000E+00  0.00000000000E+00  0.34996269501E-01  0.35000000000E-01  0.51099999109E-03 0. -1.
       11   -1    0    0    0    0 -0.00000000000E+00 -0.00000000000E+00 -0.34996269501E-01  0.35000000000E-01  0.51099999109E-03 0.  1.
       22    1    1    2    0    0  0.17967896986E-05 -0.30066719943E-05  0.11448304938E-04  0.11972143319E-04  0.00000000000E+00 0. -1.
       22    1    1    2    0    0  0.71889133427E-02 -0.30578158991E-02 -0.34116252962E-01  0.34999277554E-01  0.00000000000E+00 0.  1.
       22    1    1    2    0    0 -0.71907101324E-02  0.30608225711E-02  0.34104804657E-01  0.34988750303E-01  0.00000000000E+00 0. -1.
</event>
<event>
 5   0  0.2147244E+06  0.9118800E+02  0.7546771E-02  0.1180000E+00
      -11   -1    0    0    0    0  0.00000000000E+00  0.00000000000E+00  0.34996269501E-01  0.35000000000E-01  0.51099999109E-03 0. -1.
       11   -1    0    0    0    0 -0.00000000000E+00 -0.00000000000E+00 -0.34996269501E-01  0.35000000000E-01  0.51099999109E-03 0.  1.
       22    1    1    2    0    0 -0.26382222593E-01 -0.67545431007E-02 -0.21983075645E-01  0.34998587632E-01  0.00000000000E+00 0.  1.
       22    1    1    2    0    0  0.26496809306E-05  0.95958918217E-06  0.12626684116E-04  0.12937340229E-04  0.00000000000E+00 0. -1.
       22    1    1    2    0    0  0.26379572912E-01  0.67535835115E-02  0.21970448961E-01  0.34988475028E-01  0.00000000000E+00 0. -1.
</event>
<event>
 5   0  0.2147244E+06  0.9118800E+02  0.7546771E-02  0.1180000E+00
      -11   -1    0    0    0    0  0.00000000000E+00  0.00000000000E+00  0.34996269501E-01  0.35000000000E-01  0.51099999109E-03 0. -1.
       11   -1    0    0    0    0 -0.00000000000E+00 -0.00000000000E+00 -0.34996269501E-01  0.35000000000E-01  0.51099999109E-03 0.  1.
       22    1    1    2    0    0 -0.76563949759E-02  0.11464260579E-02  0.34133046199E-01  0.34999993137E-01  0.00000000000E+00 0. -1.
       22    1    1    2    0    0  0.76563956025E-02 -0.11464308821E-02 -0.34133052117E-01  0.34999999203E-01  0.00000000000E+00 0.  1.
       22    1    1    2    0    0 -0.62659840464E-09  0.48242234194E-08  0.59176975864E-08  0.76606071486E-08  0.00000000000E+00 0. -1.
</event>
<event>
 5   0  0.2147244E+06  0.9118800E+02  0.7546771E-02  0.1180000E+00
      -11   -1    0    0    0    0  0.00000000000E+00  0.00000000000E+00  0.34996269501E-01  0.35000000000E-01  0.51099999109E-03 0.  1.
       11   -1    0    0    0    0 -0.00000000000E+00 -0.00000000000E+00 -0.34996269501E-01  0.35000000000E-01  0.51099999109E-03 0. -1.
       22    1    1    2    0    0 -0.24179556165E-02  0.20809803253E-01  0.22346268419E-01  0.30630868957E-01  0.00000000000E+00 0.  1.
       22    1    1    2    0    0  0.10325859186E-01 -0.10401575729E-01 -0.14592813915E-02  0.14729074912E-01  0.00000000000E+00 0. -1.
       22    1    1    2    0    0 -0.79079035693E-02 -0.10408227524E-01 -0.20886987028E-01  0.24640056131E-01  0.00000000000E+00 0. -1.
</event>
<event>
 5   0  0.2147244E+06  0.9118800E+02  0.7546771E-02  0.1180000E+00
      -11   -1    0    0    0    0  0.00000000000E+00  0.00000000000E+00  0.34996269501E-01  0.35000000000E-01  0.51099999109E-03 0. -1.
       11   -1    0    0    0    0 -0.00000000000E+00 -0.00000000000E+00 -0.34996269501E-01  0.35000000000E-01  0.51099999109E-03 0.  1.
       22    1    1    2    0    0 -0.27241580765E-02 -0.56253896877E-02 -0.34437339255E-01  0.34999948304E-01  0.00000000000E+00 0.  1.
       22    1    1    2    0    0  0.31520547387E-06 -0.19307455919E-06  0.76534389053E-06  0.84993149544E-06  0.00000000000E+00 0.  1.
       22    1    1    2    0    0  0.27238428711E-02  0.56255827623E-02  0.34436573911E-01  0.34999201764E-01  0.00000000000E+00 0. -1.
</event>
<event>
 5   0  0.2147244E+06  0.9118800E+02  0.7546771E-02  0.1180000E+00
      -11   -1    0    0    0    0  0.00000000000E+00  0.00000000000E+00  0.34996269501E-01  0.35000000000E-01  0.51099999109E-03 0.  1.
       11   -1    0    0    0    0 -0.00000000000E+00 -0.00000000000E+00 -0.34996269501E-01  0.35000000000E-01  0.51099999109E-03 0. -1.
       22    1    1    2    0    0 -0.15829370365E-02 -0.67661112085E-04 -0.34964002930E-01  0.34999882408E-01  0.00000000000E+00 0. -1.
       22    1    1    2    0    0 -0.18769527631E-06 -0.78004663994E-06  0.13260997039E-05  0.15499169984E-05  0.00000000000E+00 0.  1.
       22    1    1    2    0    0  0.15831247318E-02  0.68441158725E-04  0.34962676831E-01  0.34998567675E-01  0.00000000000E+00 0.  1.
</event>
<event>
 5   0  0.2147244E+06  0.9118800E+02  0.7546771E-02  0.1180000E+00
      -11   -1    0    0    0    0  0.00000000000E+00  0.00000000000E+00  0.34996269501E-01  0.35000000000E-01  0.51099999109E-03 0.  1.
       11   -1    0    0    0    0 -0.00000000000E+00 -0.00000000000E+00 -0.34996269501E-01  0.35000000000E-01  0.51099999109E-03 0. -1.
       22    1    1    2    0    0 -0.74114055966E-02  0.23585955527E-01 -0.24637449477E-01  0.34903153837E-01  0.00000000000E+00 0. -1.
       22    1    1    2    0    0  0.24740966432E-04 -0.11280184226E-03  0.89515404663E-03  0.90257251134E-03  0.00000000000E+00 0. -1.
       22    1    1    2    0    0  0.73866646301E-02 -0.23473153685E-01  0.23742295430E-01  0.34194273652E-01  0.00000000000E+00 0.  1.
</event>
<event>
 5   0  0.2147244E+06  0.9118800E+02  0.7546771E-02  0.1180000E+00
      -11   -1    0    0    0    0  0.00000000000E+00  0.00000000000E+00  0.34996269501E-01  0.35000000000E-01  0.51099999109E-03 0. -1.
       11   -1    0    0    0    0 -0.00000000000E+00 -0.00000000000E+00 -0.34996269501E-01  0.35000000000E-01  0.51099999109E-03 0.  1.
       22    1    1    2    0    0  0.54743809249E-02 -0.12600784275E-01  0.74542969073E-02  0.15630583906E-01  0.00000000000E+00 0. -1.
       22    1    1    2    0    0 -0.12179461554E-01 -0.12695696791E-01 -0.18886567203E-01  0.25811284770E-01  0.00000000000E+00 0.  1.
       22    1    1    2    0    0  0.67050806293E-02  0.25296481066E-01  0.11432270296E-01  0.28558131324E-01  0.00000000000E+00 0. -1.
</event>
<event>
 5   0  0.2147244E+06  0.9118800E+02  0.7546771E-02  0.1180000E+00
      -11   -1    0    0    0    0  0.00000000000E+00  0.00000000000E+00  0.34996269501E-01  0.35000000000E-01  0.51099999109E-03 0.  1.
       11   -1    0    0    0    0 -0.00000000000E+00 -0.00000000000E+00 -0.34996269501E-01  0.35000000000E-01  0.51099999109E-03 0. -1.
       22    1    1    2    0    0  0.21724476560E-03  0.51617143569E-04 -0.41072040111E-02  0.41132693088E-02  0.00000000000E+00 0. -1.
       22    1    1    2    0    0 -0.34938990613E-02  0.67357602716E-02  0.34114082403E-01  0.34947795571E-01  0.00000000000E+00 0.  1.
       22    1    1    2    0    0  0.32766542957E-02 -0.67873774152E-02 -0.30006878392E-01  0.30938935120E-01  0.00000000000E+00 0. -1.
</event>
<event>
 5   0  0.2147244E+06  0.9118800E+02  0.7546771E-02  0.1180000E+00
      -11   -1    0    0    0    0  0.00000000000E+00  0.00000000000E+00  0.34996269501E-01  0.35000000000E-01  0.51099999109E-03 0.  1.
       11   -1    0    0    0    0 -0.00000000000E+00 -0.00000000000E+00 -0.34996269501E-01  0.35000000000E-01  0.51099999109E-03 0. -1.
       22    1    1    2    0    0 -0.37583188813E-02 -0.42419887494E-02  0.34537301500E-01  0.34999208909E-01  0.00000000000E+00 0.  1.
       22    1    1    2    0    0 -0.28763323526E-07 -0.50710340742E-07  0.79061737922E-06  0.79276396724E-06  0.00000000000E+00 0. -1.
       22    1    1    2    0    0  0.37583476446E-02  0.42420394598E-02 -0.34538092117E-01  0.34999998327E-01  0.00000000000E+00 0. -1.
</event>
<event>
 5   0  0.2147244E+06  0.9118800E+02  0.7546771E-02  0.1180000E+00
      -11   -1    0    0    0    0  0.00000000000E+00  0.00000000000E+00  0.34996269501E-01  0.35000000000E-01  0.51099999109E-03 0. -1.
       11   -1    0    0    0    0 -0.00000000000E+00 -0.00000000000E+00 -0.34996269501E-01  0.35000000000E-01  0.51099999109E-03 0. -1.
       22    1    1    2    0    0 -0.00000000000E+00 -0.00000000000E+00  0.25559053937E-01  0.25556427161E-01  0.00000000000E+00 0. -1.
       22    1    1    2    0    0  0.68226608856E-02 -0.51328033622E-02  0.68391324159E-02  0.10939291756E-01  0.00000000000E+00 0.  1.
       22    1    1    2    0    0 -0.68226608856E-02  0.51328033622E-02 -0.32398186353E-01  0.33504281083E-01  0.00000000000E+00 0. -1.
</event>
<event>
 5   0  0.2147244E+06  0.9118800E+02  0.7546771E-02  0.1180000E+00
      -11   -1    0    0    0    0  0.00000000000E+00  0.00000000000E+00  0.34996269501E-01  0.35000000000E-01  0.51099999109E-03 0. -1.
       11   -1    0    0    0    0 -0.00000000000E+00 -0.00000000000E+00 -0.34996269501E-01  0.35000000000E-01  0.51099999109E-03 0.  1.
       22    1    1    2    0    0 -0.12153387820E-02  0.16391169094E-02 -0.34940464808E-01  0.34999997623E-01  0.00000000000E+00 0.  1.
       22    1    1    2    0    0  0.12153533699E-02 -0.16391479697E-02  0.34940217845E-01  0.34999753041E-01  0.00000000000E+00 0. -1.
       22    1    1    2    0    0 -0.14587898286E-07  0.31060232738E-07  0.24696328578E-06  0.24933593676E-06  0.00000000000E+00 0. -1.
</event>
<event>
 5   0  0.2147244E+06  0.9118800E+02  0.7546771E-02  0.1180000E+00
      -11   -1    0    0    0    0  0.00000000000E+00  0.00000000000E+00  0.34996269501E-01  0.35000000000E-01  0.51099999109E-03 0. -1.
       11   -1    0    0    0    0 -0.00000000000E+00 -0.00000000000E+00 -0.34996269501E-01  0.35000000000E-01  0.51099999109E-03 0.  1.
       22    1    1    2    0    0 -0.43065683031E-02 -0.70411971729E-02 -0.33465115271E-01  0.34467940586E-01  0.00000000000E+00 0.  1.
       22    1    1    2    0    0 -0.76548880542E-04  0.20521277436E-03 -0.53371272835E-03  0.57690665646E-03  0.00000000000E+00 0.  1.
       22    1    1    2    0    0  0.43831171836E-02  0.68359843985E-02  0.33998827999E-01  0.34955152757E-01  0.00000000000E+00 0. -1.
</event>
<event>
 5   0  0.2147244E+06  0.9118800E+02  0.7546771E-02  0.1180000E+00
      -11   -1    0    0    0    0  0.00000000000E+00  0.00000000000E+00  0.34996269501E-01  0.35000000000E-01  0.51099999109E-03 0. -1.
       11   -1    0    0    0    0 -0.00000000000E+00 -0.00000000000E+00 -0.34996269501E-01  0.35000000000E-01  0.51099999109E-03 0.  1.
       22    1    1    2    0    0 -0.92845426878E-02  0.78457077401E-02  0.32746716682E-01  0.34930005959E-01  0.00000000000E+00 0. -1.
       22    1    1    2    0    0 -0.10193019006E-04  0.38519483896E-05  0.69970166133E-04  0.70813553022E-04  0.00000000000E+00 0. -1.
       22    1    1    2    0    0  0.92947357068E-02 -0.78495596885E-02 -0.32816686848E-01  0.34999180488E-01  0.00000000000E+00 0.  1.
</event>
<event>
 5   0  0.2147244E+06  0.9118800E+02  0.7546771E-02  0.1180000E+00
      -11   -1    0    0    0    0  0.00000000000E+00  0.00000000000E+00  0.34996269501E-01  0.35000000000E-01  0.51099999109E-03 0. -1.
       11   -1    0    0    0    0 -0.00000000000E+00 -0.00000000000E+00 -0.34996269501E-01  0.35000000000E-01  0.51099999109E-03 0.  1.
       22    1    1    2    0    0 -0.10216692535E-01 -0.15755301360E-01  0.29513643776E-01  0.34980930466E-01  0.00000000000E+00 0. -1.
       22    1    1    2    0    0  0.10214287477E-01  0.15766148372E-01 -0.29299591226E-01  0.34804728834E-01  0.00000000000E+00 0.  1.
       22    1    1    2    0    0  0.24050582169E-05 -0.10847012488E-04 -0.21405254966E-03  0.21434070076E-03  0.00000000000E+00 0.  1.
</event>
<event>
 5   0  0.2147244E+06  0.9118800E+02  0.7546771E-02  0.1180000E+00
      -11   -1    0    0    0    0  0.00000000000E+00  0.00000000000E+00  0.34996269501E-01  0.35000000000E-01  0.51099999109E-03 0. -1.
       11   -1    0    0    0    0 -0.00000000000E+00 -0.00000000000E+00 -0.34996269501E-01  0.35000000000E-01  0.51099999109E-03 0. -1.
       22    1    1    2    0    0 -0.28370582066E-05 -0.26185097473E-06  0.83371896586E-04  0.83420564644E-04  0.00000000000E+00 0. -1.
       22    1    1    2    0    0  0.24303854709E-03 -0.67842823148E-03  0.34909182336E-01  0.34916619882E-01  0.00000000000E+00 0. -1.
       22    1    1    2    0    0 -0.24020148888E-03  0.67869008245E-03 -0.34992554233E-01  0.34999959553E-01  0.00000000000E+00 0. -1.
</event>
<event>
 5   0  0.2147244E+06  0.9118800E+02  0.7546771E-02  0.1180000E+00
      -11   -1    0    0    0    0  0.00000000000E+00  0.00000000000E+00  0.34996269501E-01  0.35000000000E-01  0.51099999109E-03 0. -1.
       11   -1    0    0    0    0 -0.00000000000E+00 -0.00000000000E+00 -0.34996269501E-01  0.35000000000E-01  0.51099999109E-03 0.  1.
       22    1    1    2    0    0 -0.13618829032E-04 -0.15394337682E-02 -0.34814906190E-01  0.34848927312E-01  0.00000000000E+00 0.  1.
       22    1    1    2    0    0  0.18357410313E-04  0.16493174604E-02  0.34943188583E-01  0.34982095612E-01  0.00000000000E+00 0. -1.
       22    1    1    2    0    0 -0.47385812806E-05 -0.10988369211E-03 -0.12828239251E-03  0.16897707588E-03  0.00000000000E+00 0. -1.
</event>
<event>
 5   0  0.2147244E+06  0.9118800E+02  0.7546771E-02  0.1180000E+00
      -11   -1    0    0    0    0  0.00000000000E+00  0.00000000000E+00  0.34996269501E-01  0.35000000000E-01  0.51099999109E-03 0.  1.
       11   -1    0    0    0    0 -0.00000000000E+00 -0.00000000000E+00 -0.34996269501E-01  0.35000000000E-01  0.51099999109E-03 0. -1.
       22    1    1    2    0    0  0.38889251162E-06  0.35716976242E-06  0.70512096288E-06  0.88091043646E-06  0.00000000000E+00 0.  1.
       22    1    1    2    0    0  0.26902904675E-03  0.15251668892E-03  0.34997838409E-01  0.34999204723E-01  0.00000000000E+00 0.  1.
       22    1    1    2    0    0 -0.26941793927E-03 -0.15287385868E-03 -0.34998543530E-01  0.34999914366E-01  0.00000000000E+00 0. -1.
</event>
<event>
 5   0  0.2147244E+06  0.9118800E+02  0.7546771E-02  0.1180000E+00
      -11   -1    0    0    0    0  0.00000000000E+00  0.00000000000E+00  0.34996269501E-01  0.35000000000E-01  0.51099999109E-03 0.  1.
       11   -1    0    0    0    0 -0.00000000000E+00 -0.00000000000E+00 -0.34996269501E-01  0.35000000000E-01  0.51099999109E-03 0. -1.
       22    1    1    2    0    0 -0.24831952341E-02  0.68285422951E-02 -0.34237376924E-01  0.34999903244E-01  0.00000000000E+00 0. -1.
       22    1    1    2    0    0  0.24844442000E-02 -0.68241181230E-02  0.34211662230E-01  0.34973974376E-01  0.00000000000E+00 0.  1.
       22    1    1    2    0    0 -0.12489658931E-05 -0.44241721414E-05  0.25714694208E-04  0.26122379546E-04  0.00000000000E+00 0. -1.
</event>
<event>
 5   0  0.2147244E+06  0.9118800E+02  0.7546771E-02  0.1180000E+00
      -11   -1    0    0    0    0  0.00000000000E+00  0.00000000000E+00  0.34996269501E-01  0.35000000000E-01  0.51099999109E-03 0.  1.
       11   -1    0    0    0    0 -0.00000000000E+00 -0.00000000000E+00 -0.34996269501E-01  0.35000000000E-01  0.51099999109E-03 0. -1.
       22    1    1    2    0    0  0.13055558496E-02  0.45054473697E-03  0.61998340082E-02  0.63518035521E-02  0.00000000000E+00 0.  1.
       22    1    1    2    0    0  0.69735217336E-02 -0.89353400967E-02 -0.32704636708E-01  0.34613054910E-01  0.00000000000E+00 0. -1.
       22    1    1    2    0    0 -0.82790775831E-02  0.84847953597E-02  0.26504802700E-01  0.29035141537E-01  0.00000000000E+00 0.  1.
</event>
<event>
 5   0  0.2147244E+06  0.9118800E+02  0.7546771E-02  0.1180000E+00
      -11   -1    0    0    0    0  0.00000000000E+00  0.00000000000E+00  0.34996269501E-01  0.35000000000E-01  0.51099999109E-03 0. -1.
       11   -1    0    0    0    0 -0.00000000000E+00 -0.00000000000E+00 -0.34996269501E-01  0.35000000000E-01  0.51099999109E-03 0.  1.
       22    1    1    2    0    0 -0.21207825097E-02  0.11634890386E-02 -0.21321605938E-02  0.32245207387E-02  0.00000000000E+00 0. -1.
       22    1    1    2    0    0  0.12065673010E-01 -0.61301610920E-02 -0.29926433363E-01  0.32844341278E-01  0.00000000000E+00 0.  1.
       22    1    1    2    0    0 -0.99448905000E-02  0.49666720534E-02  0.32058593957E-01  0.33931137983E-01  0.00000000000E+00 0. -1.
</event>
<event>
 5   0  0.2147244E+06  0.9118800E+02  0.7546771E-02  0.1180000E+00
      -11   -1    0    0    0    0  0.00000000000E+00  0.00000000000E+00  0.34996269501E-01  0.35000000000E-01  0.51099999109E-03 0.  1.
       11   -1    0    0    0    0 -0.00000000000E+00 -0.00000000000E+00 -0.34996269501E-01  0.35000000000E-01  0.51099999109E-03 0. -1.
       22    1    1    2    0    0  0.70448911403E-04 -0.19488597161E-03  0.35418642071E-03  0.41035546988E-03  0.00000000000E+00 0.  1.
       22    1    1    2    0    0  0.67518744691E-02 -0.72483058931E-02  0.33149347550E-01  0.34597759900E-01  0.00000000000E+00 0.  1.
       22    1    1    2    0    0 -0.68223233805E-02  0.74431918647E-02 -0.33503533970E-01  0.34991884630E-01  0.00000000000E+00 0. -1.
</event>
<event>
 5   0  0.2147244E+06  0.9118800E+02  0.7546771E-02  0.1180000E+00
      -11   -1    0    0    0    0  0.00000000000E+00  0.00000000000E+00  0.34996269501E-01  0.35000000000E-01  0.51099999109E-03 0. -1.
       11   -1    0    0    0    0 -0.00000000000E+00 -0.00000000000E+00 -0.34996269501E-01  0.35000000000E-01  0.51099999109E-03 0. -1.
       22    1    1    2    0    0  0.10341787294E-05  0.57382137971E-07  0.20989525337E-05  0.23406025064E-05  0.00000000000E+00 0.  1.
       22    1    1    2    0    0 -0.15117653829E-03 -0.16829118731E-02  0.34956972292E-01  0.34997785052E-01  0.00000000000E+00 0. -1.
       22    1    1    2    0    0  0.15014235956E-03  0.16828544909E-02 -0.34959071244E-01  0.34999874346E-01  0.00000000000E+00 0. -1.
</event>
<event>
 5   0  0.2147244E+06  0.9118800E+02  0.7546771E-02  0.1180000E+00
      -11   -1    0    0    0    0  0.00000000000E+00  0.00000000000E+00  0.34996269501E-01  0.35000000000E-01  0.51099999109E-03 0. -1.
       11   -1    0    0    0    0 -0.00000000000E+00 -0.00000000000E+00 -0.34996269501E-01  0.35000000000E-01  0.51099999109E-03 0.  1.
       22    1    1    2    0    0 -0.56303738422E-03  0.67863906842E-03 -0.34863275353E-01  0.34874425163E-01  0.00000000000E+00 0.  1.
       22    1    1    2    0    0  0.38665922100E-03  0.28111088458E-03  0.33153378505E-01  0.33156824862E-01  0.00000000000E+00 0. -1.
       22    1    1    2    0    0  0.17637816322E-03 -0.95974995300E-03  0.17098968488E-02  0.19687499745E-02  0.00000000000E+00 0.  1.
</event>
<event>
 5   0  0.2147244E+06  0.9118800E+02  0.7546771E-02  0.1180000E+00
      -11   -1    0    0    0    0  0.00000000000E+00  0.00000000000E+00  0.34996269501E-01  0.35000000000E-01  0.51099999109E-03 0.  1.
       11   -1    0    0    0    0 -0.00000000000E+00 -0.00000000000E+00 -0.34996269501E-01  0.35000000000E-01  0.51099999109E-03 0. -1.
       22    1    1    2    0    0 -0.27541778135E-02  0.14516075758E-02 -0.27166694162E-01  0.27344504597E-01  0.00000000000E+00 0. -1.
       22    1    1    2    0    0  0.58589415607E-02  0.12851092255E-01  0.23740407088E-01  0.27623987711E-01  0.00000000000E+00 0.  1.
       22    1    1    2    0    0 -0.31047637472E-02 -0.14302699831E-01  0.34262870741E-02  0.15031507692E-01  0.00000000000E+00 0. -1.
</event>
<event>
 5   0  0.2147244E+06  0.9118800E+02  0.7546771E-02  0.1180000E+00
      -11   -1    0    0    0    0  0.00000000000E+00  0.00000000000E+00  0.34996269501E-01  0.35000000000E-01  0.51099999109E-03 0.  1.
       11   -1    0    0    0    0 -0.00000000000E+00 -0.00000000000E+00 -0.34996269501E-01  0.35000000000E-01  0.51099999109E-03 0. -1.
       22    1    1    2    0    0  0.20245747801E-02 -0.28872077702E-02 -0.34639736972E-01  0.34818762891E-01  0.00000000000E+00 0. -1.
       22    1    1    2    0    0  0.28660838023E-04  0.57153926387E-04 -0.17761198303E-03  0.18876978427E-03  0.00000000000E+00 0. -1.
       22    1    1    2    0    0 -0.20532356182E-02  0.28300538438E-02  0.34817348955E-01  0.34992467325E-01  0.00000000000E+00 0.  1.
</event>
<event>
 5   0  0.2147244E+06  0.9118800E+02  0.7546771E-02  0.1180000E+00
      -11   -1    0    0    0    0  0.00000000000E+00  0.00000000000E+00  0.34996269501E-01  0.35000000000E-01  0.51099999109E-03 0. -1.
       11   -1    0    0    0    0 -0.00000000000E+00 -0.00000000000E+00 -0.34996269501E-01  0.35000000000E-01  0.51099999109E-03 0.  1.
       22    1    1    2    0    0 -0.15015936178E-02 -0.85694393928E-02  0.33852782470E-01  0.34952839024E-01  0.00000000000E+00 0. -1.
       22    1    1    2    0    0  0.30786051101E-03  0.12949361453E-02 -0.98023889332E-02  0.98923438331E-02  0.00000000000E+00 0.  1.
       22    1    1    2    0    0  0.11937331068E-02  0.72745032475E-02 -0.24050393536E-01  0.25154817143E-01  0.00000000000E+00 0.  1.
</event>
<event>
 5   0  0.2147244E+06  0.9118800E+02  0.7546771E-02  0.1180000E+00
      -11   -1    0    0    0    0  0.00000000000E+00  0.00000000000E+00  0.34996269501E-01  0.35000000000E-01  0.51099999109E-03 0.  1.
       11   -1    0    0    0    0 -0.00000000000E+00 -0.00000000000E+00 -0.34996269501E-01  0.35000000000E-01  0.51099999109E-03 0. -1.
       22    1    1    2    0    0  0.70614537541E-02 -0.31074280989E-01  0.14474606697E-01  0.34999847245E-01  0.00000000000E+00 0. -1.
       22    1    1    2    0    0 -0.70614102285E-02  0.31074409826E-01 -0.14474696294E-01  0.34999989903E-01  0.00000000000E+00 0.  1.
       22    1    1    2    0    0 -0.43525623657E-07 -0.12883614111E-06  0.89596982466E-07  0.16285223498E-06  0.00000000000E+00 0. -1.
</event>
<event>
 5   0  0.2147244E+06  0.9118800E+02  0.7546771E-02  0.1180000E+00
      -11   -1    0    0    0    0  0.00000000000E+00  0.00000000000E+00  0.34996269501E-01  0.35000000000E-01  0.51099999109E-03 0.  1.
       11   -1    0    0    0    0 -0.00000000000E+00 -0.00000000000E+00 -0.34996269501E-01  0.35000000000E-01  0.51099999109E-03 0. -1.
       22    1    1    2    0    0  0.23245658982E-01  0.13002573991E-01 -0.22705917939E-01  0.34999804305E-01  0.00000000000E+00 0. -1.
       22    1    1    2    0    0 -0.23245870212E-01 -0.13002436833E-01  0.22705982692E-01  0.34999935650E-01  0.00000000000E+00 0.  1.
       22    1    1    2    0    0  0.21122961410E-06 -0.13715846240E-06 -0.64753245426E-07  0.26004495087E-06  0.00000000000E+00 0.  1.
</event>
<event>
 5   0  0.2147244E+06  0.9118800E+02  0.7546771E-02  0.1180000E+00
      -11   -1    0    0    0    0  0.00000000000E+00  0.00000000000E+00  0.34996269501E-01  0.35000000000E-01  0.51099999109E-03 0.  1.
       11   -1    0    0    0    0 -0.00000000000E+00 -0.00000000000E+00 -0.34996269501E-01  0.35000000000E-01  0.51099999109E-03 0.  1.
       22    1    1    2    0    0  0.12957130158E-08  0.21221810146E-07  0.35002375662E-01  0.34999833267E-01  0.00000000000E+00 0.  1.
       22    1    1    2    0    0 -0.12955969011E-08 -0.21219908363E-07  0.16604965485E-06  0.16740505058E-06  0.00000000000E+00 0. -1.
       22    1    1    2    0    0 -0.11611474375E-12 -0.19017830469E-11 -0.35002541711E-01  0.34999999328E-01  0.00000000000E+00 0.  1.
</event>
<event>
 5   0  0.2147244E+06  0.9118800E+02  0.7546771E-02  0.1180000E+00
      -11   -1    0    0    0    0  0.00000000000E+00  0.00000000000E+00  0.34996269501E-01  0.35000000000E-01  0.51099999109E-03 0.  1.
       11   -1    0    0    0    0 -0.00000000000E+00 -0.00000000000E+00 -0.34996269501E-01  0.35000000000E-01  0.51099999109E-03 0. -1.
       22    1    1    2    0    0 -0.63831794000E-03  0.38340527895E-03  0.34991561849E-01  0.34999483568E-01  0.00000000000E+00 0.  1.
       22    1    1    2    0    0 -0.18454223932E-06  0.46739622010E-06  0.38898875095E-06  0.63547408525E-06  0.00000000000E+00 0.  1.
       22    1    1    2    0    0  0.63850248224E-03 -0.38387267517E-03 -0.34991950838E-01  0.34999880958E-01  0.00000000000E+00 0. -1.
</event>
<event>
 5   0  0.2147244E+06  0.9118800E+02  0.7546771E-02  0.1180000E+00
      -11   -1    0    0    0    0  0.00000000000E+00  0.00000000000E+00  0.34996269501E-01  0.35000000000E-01  0.51099999109E-03 0. -1.
       11   -1    0    0    0    0 -0.00000000000E+00 -0.00000000000E+00 -0.34996269501E-01  0.35000000000E-01  0.51099999109E-03 0.  1.
       22    1    1    2    0    0 -0.14949673878E-03  0.58183193208E-04 -0.38210173247E-03  0.41441077789E-03  0.00000000000E+00 0.  1.
       22    1    1    2    0    0 -0.12104164812E-02  0.39708814016E-02 -0.34347080399E-01  0.34597036565E-01  0.00000000000E+00 0.  1.
       22    1    1    2    0    0  0.13599132200E-02 -0.40290645948E-02  0.34729182132E-01  0.34988552657E-01  0.00000000000E+00 0. -1.
</event>
<event>
 5   0  0.2147244E+06  0.9118800E+02  0.7546771E-02  0.1180000E+00
      -11   -1    0    0    0    0  0.00000000000E+00  0.00000000000E+00  0.34996269501E-01  0.35000000000E-01  0.51099999109E-03 0. -1.
       11   -1    0    0    0    0 -0.00000000000E+00 -0.00000000000E+00 -0.34996269501E-01  0.35000000000E-01  0.51099999109E-03 0.  1.
       22    1    1    2    0    0  0.18778701844E-06  0.13451759763E-08  0.11290471010E-05  0.11445580501E-05  0.00000000000E+00 0. -1.
       22    1    1    2    0    0  0.51430517395E-02  0.66988167584E-03  0.34612428000E-01  0.34998855620E-01  0.00000000000E+00 0. -1.
       22    1    1    2    0    0 -0.51432395265E-02 -0.66988302102E-03 -0.34613557047E-01  0.34999999822E-01  0.00000000000E+00 0.  1.
</event>
<event>
 5   0  0.2147244E+06  0.9118800E+02  0.7546771E-02  0.1180000E+00
      -11   -1    0    0    0    0  0.00000000000E+00  0.00000000000E+00  0.34996269501E-01  0.35000000000E-01  0.51099999109E-03 0.  1.
       11   -1    0    0    0    0 -0.00000000000E+00 -0.00000000000E+00 -0.34996269501E-01  0.35000000000E-01  0.51099999109E-03 0. -1.
       22    1    1    2    0    0 -0.64504413818E-05 -0.56739928421E-06  0.76879578641E-03  0.76882305594E-03  0.00000000000E+00 0. -1.
       22    1    1    2    0    0 -0.64064473777E-02  0.79615681722E-03  0.33623203308E-01  0.34237351451E-01  0.00000000000E+00 0.  1.
       22    1    1    2    0    0  0.64128978190E-02 -0.79558941793E-03 -0.34391999094E-01  0.34993825493E-01  0.00000000000E+00 0. -1.
</event>
<event>
 5   0  0.2147244E+06  0.9118800E+02  0.7546771E-02  0.1180000E+00
      -11   -1    0    0    0    0  0.00000000000E+00  0.00000000000E+00  0.34996269501E-01  0.35000000000E-01  0.51099999109E-03 0.  1.
       11   -1    0    0    0    0 -0.00000000000E+00 -0.00000000000E+00 -0.34996269501E-01  0.35000000000E-01  0.51099999109E-03 0. -1.
       22    1    1    2    0    0  0.17905888610E-02  0.23306593453E-03  0.34928422187E-01  0.34975065471E-01  0.00000000000E+00 0.  1.
       22    1    1    2    0    0 -0.73616112813E-03  0.33915222428E-03 -0.26411465940E-01  0.26423899987E-01  0.00000000000E+00 0. -1.
       22    1    1    2    0    0 -0.10544277328E-02 -0.57221815881E-03 -0.85169562473E-02  0.86010345414E-02  0.00000000000E+00 0. -1.
</event>
<event>
 5   0  0.2147244E+06  0.9118800E+02  0.7546771E-02  0.1180000E+00
      -11   -1    0    0    0    0  0.00000000000E+00  0.00000000000E+00  0.34996269501E-01  0.35000000000E-01  0.51099999109E-03 0.  1.
       11   -1    0    0    0    0 -0.00000000000E+00 -0.00000000000E+00 -0.34996269501E-01  0.35000000000E-01  0.51099999109E-03 0. -1.
       22    1    1    2    0    0  0.24525036859E-04 -0.15476522703E-04  0.11956655047E-04  0.31368165198E-04  0.00000000000E+00 0.  1.
       22    1    1    2    0    0  0.98316857100E-02 -0.30168648855E-01  0.14704039275E-01  0.34971676949E-01  0.00000000000E+00 0.  1.
       22    1    1    2    0    0 -0.98562107469E-02  0.30184125377E-01 -0.14715995930E-01  0.34996954886E-01  0.00000000000E+00 0. -1.
</event>
<event>
 5   0  0.2147244E+06  0.9118800E+02  0.7546771E-02  0.1180000E+00
      -11   -1    0    0    0    0  0.00000000000E+00  0.00000000000E+00  0.34996269501E-01  0.35000000000E-01  0.51099999109E-03 0.  1.
       11   -1    0    0    0    0 -0.00000000000E+00 -0.00000000000E+00 -0.34996269501E-01  0.35000000000E-01  0.51099999109E-03 0. -1.
       22    1    1    2    0    0 -0.58115124113E-06  0.11154795901E-05  0.12900347871E-05  0.18017272915E-05  0.00000000000E+00 0. -1.
       22    1    1    2    0    0  0.59604464557E-03 -0.11669895157E-02  0.34973937953E-01  0.34998478105E-01  0.00000000000E+00 0.  1.
       22    1    1    2    0    0 -0.59546349433E-03  0.11658740361E-02 -0.34975227987E-01  0.34999720168E-01  0.00000000000E+00 0. -1.
</event>
<event>
 5   0  0.2147244E+06  0.9118800E+02  0.7546771E-02  0.1180000E+00
      -11   -1    0    0    0    0  0.00000000000E+00  0.00000000000E+00  0.34996269501E-01  0.35000000000E-01  0.51099999109E-03 0. -1.
       11   -1    0    0    0    0 -0.00000000000E+00 -0.00000000000E+00 -0.34996269501E-01  0.35000000000E-01  0.51099999109E-03 0.  1.
       22    1    1    2    0    0 -0.27246747903E-01  0.19407562662E-01  0.10293309669E-01  0.34999871196E-01  0.00000000000E+00 0. -1.
       22    1    1    2    0    0 -0.11954177141E-06 -0.11789778560E-06  0.10622609270E-06  0.19868091436E-06  0.00000000000E+00 0. -1.
       22    1    1    2    0    0  0.27246867445E-01 -0.19407444764E-01 -0.10293415896E-01  0.34999930123E-01  0.00000000000E+00 0.  1.
</event>
<event>
 5   0  0.2147244E+06  0.9118800E+02  0.7546771E-02  0.1180000E+00
      -11   -1    0    0    0    0  0.00000000000E+00  0.00000000000E+00  0.34996269501E-01  0.35000000000E-01  0.51099999109E-03 0. -1.
       11   -1    0    0    0    0 -0.00000000000E+00 -0.00000000000E+00 -0.34996269501E-01  0.35000000000E-01  0.51099999109E-03 0.  1.
       22    1    1    2    0    0  0.80808652457E-03 -0.19187954600E-03 -0.16966226546E-01  0.16986543639E-01  0.00000000000E+00 0.  1.
       22    1    1    2    0    0 -0.86746506872E-02  0.76566292013E-03  0.33543460599E-01  0.34655440457E-01  0.00000000000E+00 0. -1.
       22    1    1    2    0    0  0.78665641626E-02 -0.57378337413E-03 -0.16577234054E-01  0.18358015905E-01  0.00000000000E+00 0.  1.
</event>
<event>
 5   0  0.2147244E+06  0.9118800E+02  0.7546771E-02  0.1180000E+00
      -11   -1    0    0    0    0  0.00000000000E+00  0.00000000000E+00  0.34996269501E-01  0.35000000000E-01  0.51099999109E-03 0. -1.
       11   -1    0    0    0    0 -0.00000000000E+00 -0.00000000000E+00 -0.34996269501E-01  0.35000000000E-01  0.51099999109E-03 0.  1.
       22    1    1    2    0    0 -0.10045226520E-01 -0.13791620650E-02  0.33417480588E-01  0.34921865252E-01  0.00000000000E+00 0. -1.
       22    1    1    2    0    0 -0.18224231312E-04 -0.56637003153E-04  0.64072500996E-04  0.87436594838E-04  0.00000000000E+00 0. -1.
       22    1    1    2    0    0  0.10063450751E-01  0.14357990682E-02 -0.33481553089E-01  0.34990698153E-01  0.00000000000E+00 0.  1.
</event>
<event>
 5   0  0.2147244E+06  0.9118800E+02  0.7546771E-02  0.1180000E+00
      -11   -1    0    0    0    0  0.00000000000E+00  0.00000000000E+00  0.34996269501E-01  0.35000000000E-01  0.51099999109E-03 0.  1.
       11   -1    0    0    0    0 -0.00000000000E+00 -0.00000000000E+00 -0.34996269501E-01  0.35000000000E-01  0.51099999109E-03 0. -1.
       22    1    1    2    0    0  0.50385313577E-04 -0.21130344868E-04 -0.36391765890E-03  0.36799624150E-03  0.00000000000E+00 0.  1.
       22    1    1    2    0    0  0.21388395359E-01 -0.30046837421E-02  0.27467533378E-01  0.34942194698E-01  0.00000000000E+00 0.  1.
       22    1    1    2    0    0 -0.21438780672E-01  0.30258140870E-02 -0.27103615720E-01  0.34689809061E-01  0.00000000000E+00 0. -1.
</event>
<event>
 5   0  0.2147244E+06  0.9118800E+02  0.7546771E-02  0.1180000E+00
      -11   -1    0    0    0    0  0.00000000000E+00  0.00000000000E+00  0.34996269501E-01  0.35000000000E-01  0.51099999109E-03 0. -1.
       11   -1    0    0    0    0 -0.00000000000E+00 -0.00000000000E+00 -0.34996269501E-01  0.35000000000E-01  0.51099999109E-03 0.  1.
       22    1    1    2    0    0  0.84475376844E-02 -0.26332737716E-01 -0.21452833755E-01  0.34999972067E-01  0.00000000000E+00 0.  1.
       22    1    1    2    0    0 -0.16135029613E-07  0.17034197589E-07  0.18364850784E-06  0.18514123663E-06  0.00000000000E+00 0.  1.
       22    1    1    2    0    0 -0.84475215493E-02  0.26332720682E-01  0.21452650107E-01  0.34999842792E-01  0.00000000000E+00 0. -1.
</event>
<event>
 5   0  0.2147244E+06  0.9118800E+02  0.7546771E-02  0.1180000E+00
      -11   -1    0    0    0    0  0.00000000000E+00  0.00000000000E+00  0.34996269501E-01  0.35000000000E-01  0.51099999109E-03 0. -1.
       11   -1    0    0    0    0 -0.00000000000E+00 -0.00000000000E+00 -0.34996269501E-01  0.35000000000E-01  0.51099999109E-03 0.  1.
       22    1    1    2    0    0 -0.11406209496E-01  0.24583337359E-01 -0.22143468152E-01  0.34996789461E-01  0.00000000000E+00 0.  1.
       22    1    1    2    0    0  0.11406080749E-01 -0.24573463251E-01  0.22147677143E-01  0.34992476006E-01  0.00000000000E+00 0. -1.
       22    1    1    2    0    0  0.12874683334E-06 -0.98741083331E-05 -0.42089915078E-05  0.10734533089E-04  0.00000000000E+00 0. -1.
</event>
<event>
 5   0  0.2147244E+06  0.9118800E+02  0.7546771E-02  0.1180000E+00
      -11   -1    0    0    0    0  0.00000000000E+00  0.00000000000E+00  0.34996269501E-01  0.35000000000E-01  0.51099999109E-03 0.  1.
       11   -1    0    0    0    0 -0.00000000000E+00 -0.00000000000E+00 -0.34996269501E-01  0.35000000000E-01  0.51099999109E-03 0. -1.
       22    1    1    2    0    0  0.29021053424E-02  0.15219161354E-02 -0.28909113464E-02  0.43698755765E-02  0.00000000000E+00 0.  1.
       22    1    1    2    0    0 -0.73620338693E-02  0.27197338465E-02 -0.30593799358E-01  0.31584443229E-01  0.00000000000E+00 0. -1.
       22    1    1    2    0    0  0.44599285269E-02 -0.42416499819E-02  0.33484710705E-01  0.34045681195E-01  0.00000000000E+00 0.  1.
</event>
<event>
 5   0  0.2147244E+06  0.9118800E+02  0.7546771E-02  0.1180000E+00
      -11   -1    0    0    0    0  0.00000000000E+00  0.00000000000E+00  0.34996269501E-01  0.35000000000E-01  0.51099999109E-03 0.  1.
       11   -1    0    0    0    0 -0.00000000000E+00 -0.00000000000E+00 -0.34996269501E-01  0.35000000000E-01  0.51099999109E-03 0. -1.
       22    1    1    2    0    0  0.57631013109E-04  0.63698432514E-03 -0.38132773964E-02  0.38665430124E-02  0.00000000000E+00 0.  1.
       22    1    1    2    0    0  0.54447261377E-03  0.42151440576E-04  0.34964625472E-01  0.34968889911E-01  0.00000000000E+00 0.  1.
       22    1    1    2    0    0 -0.60210362688E-03 -0.67913576572E-03 -0.31151348076E-01  0.31164567077E-01  0.00000000000E+00 0. -1.
</event>
<event>
 5   0  0.2147244E+06  0.9118800E+02  0.7546771E-02  0.1180000E+00
      -11   -1    0    0    0    0  0.00000000000E+00  0.00000000000E+00  0.34996269501E-01  0.35000000000E-01  0.51099999109E-03 0.  1.
       11   -1    0    0    0    0 -0.00000000000E+00 -0.00000000000E+00 -0.34996269501E-01  0.35000000000E-01  0.51099999109E-03 0.  1.
       22    1    1    2    0    0  0.23200393167E-04 -0.16567696116E-03  0.34981641610E-01  0.34982041634E-01  0.00000000000E+00 0.  1.
       22    1    1    2    0    0 -0.28916266646E-06 -0.55635132995E-06  0.17951771699E-04  0.17962718307E-04  0.00000000000E+00 0. -1.
       22    1    1    2    0    0 -0.22911230501E-04  0.16623331249E-03 -0.34999593382E-01  0.34999995648E-01  0.00000000000E+00 0.  1.
</event>
<event>
 5   0  0.2147244E+06  0.9118800E+02  0.7546771E-02  0.1180000E+00
      -11   -1    0    0    0    0  0.00000000000E+00  0.00000000000E+00  0.34996269501E-01  0.35000000000E-01  0.51099999109E-03 0. -1.
       11   -1    0    0    0    0 -0.00000000000E+00 -0.00000000000E+00 -0.34996269501E-01  0.35000000000E-01  0.51099999109E-03 0.  1.
       22    1    1    2    0    0  0.38348129409E-02 -0.19777258387E-02  0.32541485962E-01  0.32826292791E-01  0.00000000000E+00 0. -1.
       22    1    1    2    0    0 -0.19044073625E-04 -0.10833258196E-04  0.21832690459E-02  0.21833789783E-02  0.00000000000E+00 0.  1.
       22    1    1    2    0    0 -0.38157688673E-02  0.19885590969E-02 -0.34724755008E-01  0.34990328231E-01  0.00000000000E+00 0.  1.
</event>
<event>
 5   0  0.2147244E+06  0.9118800E+02  0.7546771E-02  0.1180000E+00
      -11   -1    0    0    0    0  0.00000000000E+00  0.00000000000E+00  0.34996269501E-01  0.35000000000E-01  0.51099999109E-03 0.  1.
       11   -1    0    0    0    0 -0.00000000000E+00 -0.00000000000E+00 -0.34996269501E-01  0.35000000000E-01  0.51099999109E-03 0. -1.
       22    1    1    2    0    0 -0.11212886953E-03  0.39096294169E-04  0.37248554666E-03  0.39095637361E-03  0.00000000000E+00 0. -1.
       22    1    1    2    0    0  0.10051522567E-03 -0.62070887944E-02  0.34063738163E-01  0.34624793317E-01  0.00000000000E+00 0.  1.
       22    1    1    2    0    0  0.11613643865E-04  0.61679925002E-02 -0.34436223709E-01  0.34984250310E-01  0.00000000000E+00 0. -1.
</event>
<event>
 5   0  0.2147244E+06  0.9118800E+02  0.7546771E-02  0.1180000E+00
      -11   -1    0    0    0    0  0.00000000000E+00  0.00000000000E+00  0.34996269501E-01  0.35000000000E-01  0.51099999109E-03 0. -1.
       11   -1    0    0    0    0 -0.00000000000E+00 -0.00000000000E+00 -0.34996269501E-01  0.35000000000E-01  0.51099999109E-03 0.  1.
       22    1    1    2    0    0 -0.97934545648E-04  0.54460073240E-05 -0.15241224361E-04  0.99262929370E-04  0.00000000000E+00 0.  1.
       22    1    1    2    0    0  0.31302866766E-02 -0.30963128056E-02  0.34684141735E-01  0.34962487549E-01  0.00000000000E+00 0. -1.
       22    1    1    2    0    0 -0.30323521309E-02  0.30908667983E-02 -0.34668900511E-01  0.34938249522E-01  0.00000000000E+00 0.  1.
</event>
<event>
 5   0  0.2147244E+06  0.9118800E+02  0.7546771E-02  0.1180000E+00
      -11   -1    0    0    0    0  0.00000000000E+00  0.00000000000E+00  0.34996269501E-01  0.35000000000E-01  0.51099999109E-03 0.  1.
       11   -1    0    0    0    0 -0.00000000000E+00 -0.00000000000E+00 -0.34996269501E-01  0.35000000000E-01  0.51099999109E-03 0. -1.
       22    1    1    2    0    0  0.17597921006E-04  0.28175711807E-04 -0.73478662307E-03  0.73553717718E-03  0.00000000000E+00 0. -1.
       22    1    1    2    0    0  0.17033576398E-01 -0.13465302772E-01  0.27348146394E-01  0.34919596430E-01  0.00000000000E+00 0.  1.
       22    1    1    2    0    0 -0.17051174319E-01  0.13437127060E-01 -0.26613359771E-01  0.34344866393E-01  0.00000000000E+00 0. -1.
</event>
<event>
 5   0  0.2147244E+06  0.9118800E+02  0.7546771E-02  0.1180000E+00
      -11   -1    0    0    0    0  0.00000000000E+00  0.00000000000E+00  0.34996269501E-01  0.35000000000E-01  0.51099999109E-03 0.  1.
       11   -1    0    0    0    0 -0.00000000000E+00 -0.00000000000E+00 -0.34996269501E-01  0.35000000000E-01  0.51099999109E-03 0. -1.
       22    1    1    2    0    0  0.10313980403E-01  0.91865706391E-02  0.52727658608E-02  0.14784225772E-01  0.00000000000E+00 0. -1.
       22    1    1    2    0    0 -0.21407179568E-01  0.53036657804E-02  0.15956177407E-01  0.27221238128E-01  0.00000000000E+00 0.  1.
       22    1    1    2    0    0  0.11093199165E-01 -0.14490236419E-01 -0.21228943268E-01  0.27994536100E-01  0.00000000000E+00 0. -1.
</event>
<event>
 5   0  0.2147244E+06  0.9118800E+02  0.7546771E-02  0.1180000E+00
      -11   -1    0    0    0    0  0.00000000000E+00  0.00000000000E+00  0.34996269501E-01  0.35000000000E-01  0.51099999109E-03 0.  1.
       11   -1    0    0    0    0 -0.00000000000E+00 -0.00000000000E+00 -0.34996269501E-01  0.35000000000E-01  0.51099999109E-03 0. -1.
       22    1    1    2    0    0  0.18096300387E-02 -0.41622656376E-03  0.34899683563E-01  0.34949047458E-01  0.00000000000E+00 0.  1.
       22    1    1    2    0    0  0.52458347050E-03  0.36798055097E-03 -0.30919806435E-02  0.31576798133E-02  0.00000000000E+00 0. -1.
       22    1    1    2    0    0 -0.23342135092E-02  0.48246012793E-04 -0.31807702919E-01  0.31893272729E-01  0.00000000000E+00 0. -1.
</event>
<event>
 5   0  0.2147244E+06  0.9118800E+02  0.7546771E-02  0.1180000E+00
      -11   -1    0    0    0    0  0.00000000000E+00  0.00000000000E+00  0.34996269501E-01  0.35000000000E-01  0.51099999109E-03 0. -1.
       11   -1    0    0    0    0 -0.00000000000E+00 -0.00000000000E+00 -0.34996269501E-01  0.35000000000E-01  0.51099999109E-03 0.  1.
       22    1    1    2    0    0 -0.20577964738E-03  0.53390512694E-03  0.34995123193E-01  0.34999800674E-01  0.00000000000E+00 0. -1.
       22    1    1    2    0    0  0.20621556105E-03 -0.53372600115E-03 -0.34995044133E-01  0.34999721458E-01  0.00000000000E+00 0.  1.
       22    1    1    2    0    0 -0.43591366781E-06 -0.17912579334E-06 -0.79060471940E-07  0.47786748566E-06  0.00000000000E+00 0.  1.
</event>
<event>
 5   0  0.2147244E+06  0.9118800E+02  0.7546771E-02  0.1180000E+00
      -11   -1    0    0    0    0  0.00000000000E+00  0.00000000000E+00  0.34996269501E-01  0.35000000000E-01  0.51099999109E-03 0. -1.
       11   -1    0    0    0    0 -0.00000000000E+00 -0.00000000000E+00 -0.34996269501E-01  0.35000000000E-01  0.51099999109E-03 0.  1.
       22    1    1    2    0    0  0.35527638779E-03  0.23889671345E-03 -0.34997126014E-01  0.34999744602E-01  0.00000000000E+00 0.  1.
       22    1    1    2    0    0  0.10477651035E-05 -0.24621771967E-05  0.66750078513E-05  0.71913738656E-05  0.00000000000E+00 0. -1.
       22    1    1    2    0    0 -0.35632415289E-03 -0.23643453626E-03  0.34990451006E-01  0.34993064024E-01  0.00000000000E+00 0. -1.
</event>
<event>
 5   0  0.2147244E+06  0.9118800E+02  0.7546771E-02  0.1180000E+00
      -11   -1    0    0    0    0  0.00000000000E+00  0.00000000000E+00  0.34996269501E-01  0.35000000000E-01  0.51099999109E-03 0. -1.
       11   -1    0    0    0    0 -0.00000000000E+00 -0.00000000000E+00 -0.34996269501E-01  0.35000000000E-01  0.51099999109E-03 0.  1.
       22    1    1    2    0    0 -0.79735486303E-03  0.13068651337E-01 -0.31926478247E-01  0.34506889686E-01  0.00000000000E+00 0.  1.
       22    1    1    2    0    0  0.55280361787E-04 -0.13639098037E-01  0.24780214813E-01  0.28285810884E-01  0.00000000000E+00 0. -1.
       22    1    1    2    0    0  0.74207450124E-03  0.57044669911E-03  0.71462634342E-02  0.72072994300E-02  0.00000000000E+00 0.  1.
</event>
<event>
 5   0  0.2147244E+06  0.9118800E+02  0.7546771E-02  0.1180000E+00
      -11   -1    0    0    0    0  0.00000000000E+00  0.00000000000E+00  0.34996269501E-01  0.35000000000E-01  0.51099999109E-03 0. -1.
       11   -1    0    0    0    0 -0.00000000000E+00 -0.00000000000E+00 -0.34996269501E-01  0.35000000000E-01  0.51099999109E-03 0. -1.
       22    1    1    2    0    0  0.44818150324E-10  0.40612457273E-10 -0.35001457539E-01  0.34999895519E-01  0.00000000000E+00 0. -1.
       22    1    1    2    0    0  0.59268676736E-06  0.53706959885E-06  0.14257992954E-05  0.16348165001E-05  0.00000000000E+00 0. -1.
       22    1    1    2    0    0 -0.59273158551E-06 -0.53711021130E-06  0.35000031739E-01  0.34998469665E-01  0.00000000000E+00 0. -1.
</event>
<event>
 5   0  0.2147244E+06  0.9118800E+02  0.7546771E-02  0.1180000E+00
      -11   -1    0    0    0    0  0.00000000000E+00  0.00000000000E+00  0.34996269501E-01  0.35000000000E-01  0.51099999109E-03 0. -1.
       11   -1    0    0    0    0 -0.00000000000E+00 -0.00000000000E+00 -0.34996269501E-01  0.35000000000E-01  0.51099999109E-03 0.  1.
       22    1    1    2    0    0  0.61654910021E-08 -0.30512302127E-08  0.48534646574E-07  0.49019742994E-07  0.00000000000E+00 0.  1.
       22    1    1    2    0    0  0.13715982459E-02  0.69510422786E-03 -0.34966205448E-01  0.34999999644E-01  0.00000000000E+00 0.  1.
       22    1    1    2    0    0 -0.13716044113E-02 -0.69510117663E-03  0.34966156913E-01  0.34999951337E-01  0.00000000000E+00 0. -1.
</event>
<event>
 5   0  0.2147244E+06  0.9118800E+02  0.7546771E-02  0.1180000E+00
      -11   -1    0    0    0    0  0.00000000000E+00  0.00000000000E+00  0.34996269501E-01  0.35000000000E-01  0.51099999109E-03 0.  1.
       11   -1    0    0    0    0 -0.00000000000E+00 -0.00000000000E+00 -0.34996269501E-01  0.35000000000E-01  0.51099999109E-03 0. -1.
       22    1    1    2    0    0 -0.13023799582E-02  0.49888470742E-02  0.34594182357E-01  0.34976309720E-01  0.00000000000E+00 0.  1.
       22    1    1    2    0    0  0.13114103583E-02 -0.50033036658E-02 -0.34613563357E-01  0.34997880121E-01  0.00000000000E+00 0. -1.
       22    1    1    2    0    0 -0.90304001349E-05  0.14456591517E-04  0.19380999782E-04  0.25810159190E-04  0.00000000000E+00 0. -1.
</event>
<event>
 5   0  0.2147244E+06  0.9118800E+02  0.7546771E-02  0.1180000E+00
      -11   -1    0    0    0    0  0.00000000000E+00  0.00000000000E+00  0.34996269501E-01  0.35000000000E-01  0.51099999109E-03 0.  1.
       11   -1    0    0    0    0 -0.00000000000E+00 -0.00000000000E+00 -0.34996269501E-01  0.35000000000E-01  0.51099999109E-03 0. -1.
       22    1    1    2    0    0  0.27308314188E-04 -0.10187608608E-04  0.40542295609E-03  0.40646931584E-03  0.00000000000E+00 0. -1.
       22    1    1    2    0    0  0.39372984915E-03  0.11328006149E-02 -0.34978808655E-01  0.34999361642E-01  0.00000000000E+00 0. -1.
       22    1    1    2    0    0 -0.42103816334E-03 -0.11226130063E-02  0.34573385698E-01  0.34594169043E-01  0.00000000000E+00 0.  1.
</event>
<event>
 5   0  0.2147244E+06  0.9118800E+02  0.7546771E-02  0.1180000E+00
      -11   -1    0    0    0    0  0.00000000000E+00  0.00000000000E+00  0.34996269501E-01  0.35000000000E-01  0.51099999109E-03 0. -1.
       11   -1    0    0    0    0 -0.00000000000E+00 -0.00000000000E+00 -0.34996269501E-01  0.35000000000E-01  0.51099999109E-03 0.  1.
       22    1    1    2    0    0  0.12861615185E-01  0.13001549511E-01  0.29841891279E-01  0.34999998713E-01  0.00000000000E+00 0. -1.
       22    1    1    2    0    0 -0.90167879874E-10 -0.71807265215E-09  0.14591662316E-08  0.16287801177E-08  0.00000000000E+00 0. -1.
       22    1    1    2    0    0 -0.12861615095E-01 -0.13001548793E-01 -0.29841892738E-01  0.34999999658E-01  0.00000000000E+00 0.  1.
</event>
<event>
 5   0  0.2147244E+06  0.9118800E+02  0.7546771E-02  0.1180000E+00
      -11   -1    0    0    0    0  0.00000000000E+00  0.00000000000E+00  0.34996269501E-01  0.35000000000E-01  0.51099999109E-03 0. -1.
       11   -1    0    0    0    0 -0.00000000000E+00 -0.00000000000E+00 -0.34996269501E-01  0.35000000000E-01  0.51099999109E-03 0.  1.
       22    1    1    2    0    0 -0.72014194708E-03 -0.88344528724E-03 -0.34981256195E-01  0.34999819500E-01  0.00000000000E+00 0.  1.
       22    1    1    2    0    0 -0.35367306772E-06  0.19715318527E-06  0.49221387640E-07  0.40789307704E-06  0.00000000000E+00 0. -1.
       22    1    1    2    0    0  0.72049562014E-03  0.88324813405E-03  0.34981206974E-01  0.34999772607E-01  0.00000000000E+00 0. -1.
</event>
<event>
 5   0  0.2147244E+06  0.9118800E+02  0.7546771E-02  0.1180000E+00
      -11   -1    0    0    0    0  0.00000000000E+00  0.00000000000E+00  0.34996269501E-01  0.35000000000E-01  0.51099999109E-03 0. -1.
       11   -1    0    0    0    0 -0.00000000000E+00 -0.00000000000E+00 -0.34996269501E-01  0.35000000000E-01  0.51099999109E-03 0.  1.
       22    1    1    2    0    0  0.67222960097E-07  0.10495352554E-06  0.49190573732E-07  0.13399209466E-06  0.00000000000E+00 0. -1.
       22    1    1    2    0    0  0.23451855607E-02  0.16626666218E-02  0.34881641399E-01  0.34999903747E-01  0.00000000000E+00 0. -1.
       22    1    1    2    0    0 -0.23452527837E-02 -0.16627715753E-02 -0.34881690589E-01  0.34999962261E-01  0.00000000000E+00 0.  1.
</event>
<event>
 5   0  0.2147244E+06  0.9118800E+02  0.7546771E-02  0.1180000E+00
      -11   -1    0    0    0    0  0.00000000000E+00  0.00000000000E+00  0.34996269501E-01  0.35000000000E-01  0.51099999109E-03 0. -1.
       11   -1    0    0    0    0 -0.00000000000E+00 -0.00000000000E+00 -0.34996269501E-01  0.35000000000E-01  0.51099999109E-03 0. -1.
       22    1    1    2    0    0 -0.11074849203E-02  0.14829886817E-03  0.34981701001E-01  0.34999541716E-01  0.00000000000E+00 0. -1.
       22    1    1    2    0    0 -0.78243255973E-06 -0.17151462103E-05 -0.15291341233E-05  0.24273809755E-05  0.00000000000E+00 0.  1.
       22    1    1    2    0    0  0.11082673529E-02 -0.14658372196E-03 -0.34980171866E-01  0.34998030903E-01  0.00000000000E+00 0. -1.
</event>
<event>
 5   0  0.2147244E+06  0.9118800E+02  0.7546771E-02  0.1180000E+00
      -11   -1    0    0    0    0  0.00000000000E+00  0.00000000000E+00  0.34996269501E-01  0.35000000000E-01  0.51099999109E-03 0.  1.
       11   -1    0    0    0    0 -0.00000000000E+00 -0.00000000000E+00 -0.34996269501E-01  0.35000000000E-01  0.51099999109E-03 0. -1.
       22    1    1    2    0    0  0.45281198744E-08 -0.41845532005E-08  0.43509139215E-07  0.43943822664E-07  0.00000000000E+00 0. -1.
       22    1    1    2    0    0  0.23051182289E-01  0.82726867727E-02 -0.25004102238E-01  0.34999992573E-01  0.00000000000E+00 0. -1.
       22    1    1    2    0    0 -0.23051186817E-01 -0.82726825882E-02  0.25004058729E-01  0.34999963483E-01  0.00000000000E+00 0.  1.
</event>
<event>
 5   0  0.2147244E+06  0.9118800E+02  0.7546771E-02  0.1180000E+00
      -11   -1    0    0    0    0  0.00000000000E+00  0.00000000000E+00  0.34996269501E-01  0.35000000000E-01  0.51099999109E-03 0. -1.
       11   -1    0    0    0    0 -0.00000000000E+00 -0.00000000000E+00 -0.34996269501E-01  0.35000000000E-01  0.51099999109E-03 0. -1.
       22    1    1    2    0    0 -0.39195517493E-02  0.14658049947E-02  0.31963525242E-01  0.32236290359E-01  0.00000000000E+00 0. -1.
       22    1    1    2    0    0  0.32522141608E-02 -0.14517903145E-02  0.18020841632E-02  0.39915034005E-02  0.00000000000E+00 0.  1.
       22    1    1    2    0    0  0.66733758851E-03 -0.14014680237E-04 -0.33765609405E-01  0.33772206241E-01  0.00000000000E+00 0. -1.
</event>
<event>
 5   0  0.2147244E+06  0.9118800E+02  0.7546771E-02  0.1180000E+00
      -11   -1    0    0    0    0  0.00000000000E+00  0.00000000000E+00  0.34996269501E-01  0.35000000000E-01  0.51099999109E-03 0. -1.
       11   -1    0    0    0    0 -0.00000000000E+00 -0.00000000000E+00 -0.34996269501E-01  0.35000000000E-01  0.51099999109E-03 0.  1.
       22    1    1    2    0    0 -0.33231399650E-03  0.18386045840E-03 -0.11927582913E-03  0.39807534946E-03  0.00000000000E+00 0.  1.
       22    1    1    2    0    0 -0.57654660906E-02  0.92493270812E-03 -0.34216552864E-01  0.34711217058E-01  0.00000000000E+00 0.  1.
       22    1    1    2    0    0  0.60977800871E-02 -0.11087931665E-02  0.34335828693E-01  0.34890707593E-01  0.00000000000E+00 0. -1.
</event>
<event>
 5   0  0.2147244E+06  0.9118800E+02  0.7546771E-02  0.1180000E+00
      -11   -1    0    0    0    0  0.00000000000E+00  0.00000000000E+00  0.34996269501E-01  0.35000000000E-01  0.51099999109E-03 0.  1.
       11   -1    0    0    0    0 -0.00000000000E+00 -0.00000000000E+00 -0.34996269501E-01  0.35000000000E-01  0.51099999109E-03 0. -1.
       22    1    1    2    0    0  0.12578895620E-02 -0.91031040832E-03 -0.34958844480E-01  0.34993310197E-01  0.00000000000E+00 0. -1.
       22    1    1    2    0    0 -0.11534374544E-03  0.61024761224E-04  0.45117697974E-03  0.46966889203E-03  0.00000000000E+00 0.  1.
       22    1    1    2    0    0 -0.11425458166E-02  0.84928564710E-03  0.34507667500E-01  0.34537020910E-01  0.00000000000E+00 0.  1.
</event>
<event>
 5   0  0.2147244E+06  0.9118800E+02  0.7546771E-02  0.1180000E+00
      -11   -1    0    0    0    0  0.00000000000E+00  0.00000000000E+00  0.34996269501E-01  0.35000000000E-01  0.51099999109E-03 0.  1.
       11   -1    0    0    0    0 -0.00000000000E+00 -0.00000000000E+00 -0.34996269501E-01  0.35000000000E-01  0.51099999109E-03 0. -1.
       22    1    1    2    0    0  0.98559732676E-06 -0.87508725748E-06  0.73644724431E-06  0.15098126845E-05  0.00000000000E+00 0.  1.
       22    1    1    2    0    0  0.92620519810E-03 -0.10754631329E-02 -0.34970796091E-01  0.34999586516E-01  0.00000000000E+00 0. -1.
       22    1    1    2    0    0 -0.92719079543E-03  0.10763382202E-02  0.34970059644E-01  0.34998903672E-01  0.00000000000E+00 0.  1.
</event>
<event>
 5   0  0.2147244E+06  0.9118800E+02  0.7546771E-02  0.1180000E+00
      -11   -1    0    0    0    0  0.00000000000E+00  0.00000000000E+00  0.34996269501E-01  0.35000000000E-01  0.51099999109E-03 0.  1.
       11   -1    0    0    0    0 -0.00000000000E+00 -0.00000000000E+00 -0.34996269501E-01  0.35000000000E-01  0.51099999109E-03 0. -1.
       22    1    1    2    0    0 -0.24111797322E-03  0.24726946270E-03  0.98552212755E-04  0.35915540206E-03  0.00000000000E+00 0. -1.
       22    1    1    2    0    0  0.34970093077E-02  0.99124700100E-03  0.34588678328E-01  0.34779136177E-01  0.00000000000E+00 0.  1.
       22    1    1    2    0    0 -0.32558913345E-02 -0.12385164637E-02 -0.34687230541E-01  0.34861708421E-01  0.00000000000E+00 0. -1.
</event>
<event>
 5   0  0.2147244E+06  0.9118800E+02  0.7546771E-02  0.1180000E+00
      -11   -1    0    0    0    0  0.00000000000E+00  0.00000000000E+00  0.34996269501E-01  0.35000000000E-01  0.51099999109E-03 0.  1.
       11   -1    0    0    0    0 -0.00000000000E+00 -0.00000000000E+00 -0.34996269501E-01  0.35000000000E-01  0.51099999109E-03 0. -1.
       22    1    1    2    0    0 -0.10230412033E-02  0.10347382290E-02  0.34913988275E-01  0.34944296727E-01  0.00000000000E+00 0.  1.
       22    1    1    2    0    0  0.12010634773E-02  0.14788983323E-03 -0.62099364366E-02  0.63267476183E-02  0.00000000000E+00 0. -1.
       22    1    1    2    0    0 -0.17802227404E-03 -0.11826280622E-02 -0.28704051838E-01  0.28728955654E-01  0.00000000000E+00 0. -1.
</event>
<event>
 5   0  0.2147244E+06  0.9118800E+02  0.7546771E-02  0.1180000E+00
      -11   -1    0    0    0    0  0.00000000000E+00  0.00000000000E+00  0.34996269501E-01  0.35000000000E-01  0.51099999109E-03 0. -1.
       11   -1    0    0    0    0 -0.00000000000E+00 -0.00000000000E+00 -0.34996269501E-01  0.35000000000E-01  0.51099999109E-03 0.  1.
       22    1    1    2    0    0 -0.38808031976E-02 -0.16957453592E-01  0.30370776650E-01  0.34999999144E-01  0.00000000000E+00 0. -1.
       22    1    1    2    0    0  0.38808041052E-02  0.16957454237E-01 -0.30370776843E-01  0.34999999725E-01  0.00000000000E+00 0.  1.
       22    1    1    2    0    0 -0.90765944498E-09 -0.64504419881E-09  0.19330152814E-09  0.11301739544E-08  0.00000000000E+00 0.  1.
</event>
<event>
 5   0  0.2147244E+06  0.9118800E+02  0.7546771E-02  0.1180000E+00
      -11   -1    0    0    0    0  0.00000000000E+00  0.00000000000E+00  0.34996269501E-01  0.35000000000E-01  0.51099999109E-03 0. -1.
       11   -1    0    0    0    0 -0.00000000000E+00 -0.00000000000E+00 -0.34996269501E-01  0.35000000000E-01  0.51099999109E-03 0. -1.
       22    1    1    2    0    0 -0.49636318108E-03  0.22111949094E-03 -0.34995780282E-01  0.34999998682E-01  0.00000000000E+00 0. -1.
       22    1    1    2    0    0  0.49635854989E-03 -0.22112050387E-03  0.34995777458E-01  0.34999995800E-01  0.00000000000E+00 0. -1.
       22    1    1    2    0    0  0.46311913647E-08  0.10129328328E-08  0.28237110308E-08  0.55179081512E-08  0.00000000000E+00 0.  1.
</event>
<event>
 5   0  0.2147244E+06  0.9118800E+02  0.7546771E-02  0.1180000E+00
      -11   -1    0    0    0    0  0.00000000000E+00  0.00000000000E+00  0.34996269501E-01  0.35000000000E-01  0.51099999109E-03 0. -1.
       11   -1    0    0    0    0 -0.00000000000E+00 -0.00000000000E+00 -0.34996269501E-01  0.35000000000E-01  0.51099999109E-03 0.  1.
       22    1    1    2    0    0  0.16423293594E-03 -0.16226865220E-02  0.34961921808E-01  0.34999943722E-01  0.00000000000E+00 0. -1.
       22    1    1    2    0    0  0.10431697402E-07  0.56770795779E-08  0.55790448650E-07  0.57040544385E-07  0.00000000000E+00 0. -1.
       22    1    1    2    0    0 -0.16424336764E-03  0.16226808449E-02 -0.34961977599E-01  0.34999999238E-01  0.00000000000E+00 0.  1.
</event>
<event>
 5   0  0.2147244E+06  0.9118800E+02  0.7546771E-02  0.1180000E+00
      -11   -1    0    0    0    0  0.00000000000E+00  0.00000000000E+00  0.34996269501E-01  0.35000000000E-01  0.51099999109E-03 0. -1.
       11   -1    0    0    0    0 -0.00000000000E+00 -0.00000000000E+00 -0.34996269501E-01  0.35000000000E-01  0.51099999109E-03 0. -1.
       22    1    1    2    0    0 -0.66110029338E-03  0.31776337444E-03 -0.34754634157E-01  0.34762373661E-01  0.00000000000E+00 0. -1.
       22    1    1    2    0    0 -0.54568040617E-03  0.13356266642E-02  0.30309609987E-01  0.30343930584E-01  0.00000000000E+00 0. -1.
       22    1    1    2    0    0  0.12067806995E-02 -0.16533900387E-02  0.44450241697E-02  0.48936957553E-02  0.00000000000E+00 0.  1.
</event>
<event>
 5   0  0.2147244E+06  0.9118800E+02  0.7546771E-02  0.1180000E+00
      -11   -1    0    0    0    0  0.00000000000E+00  0.00000000000E+00  0.34996269501E-01  0.35000000000E-01  0.51099999109E-03 0. -1.
       11   -1    0    0    0    0 -0.00000000000E+00 -0.00000000000E+00 -0.34996269501E-01  0.35000000000E-01  0.51099999109E-03 0.  1.
       22    1    1    2    0    0 -0.89415848288E-02 -0.17691739189E-02 -0.33791161118E-01  0.34998921202E-01  0.00000000000E+00 0.  1.
       22    1    1    2    0    0 -0.24750763716E-05  0.18080021148E-05  0.43657544078E-04  0.43765009192E-04  0.00000000000E+00 0. -1.
       22    1    1    2    0    0  0.89440599052E-02  0.17673659168E-02  0.33747503574E-01  0.34957313789E-01  0.00000000000E+00 0. -1.
</event>
<event>
 5   0  0.2147244E+06  0.9118800E+02  0.7546771E-02  0.1180000E+00
      -11   -1    0    0    0    0  0.00000000000E+00  0.00000000000E+00  0.34996269501E-01  0.35000000000E-01  0.51099999109E-03 0. -1.
       11   -1    0    0    0    0 -0.00000000000E+00 -0.00000000000E+00 -0.34996269501E-01  0.35000000000E-01  0.51099999109E-03 0.  1.
       22    1    1    2    0    0  0.10437090145E-01 -0.11712352367E-01  0.31222579212E-01  0.34942259534E-01  0.00000000000E+00 0. -1.
       22    1    1    2    0    0 -0.34604433250E-04 -0.40293418254E-04 -0.10122796055E-02  0.10136720506E-02  0.00000000000E+00 0.  1.
       22    1    1    2    0    0 -0.10402485712E-01  0.11752645785E-01 -0.30210299607E-01  0.34044068415E-01  0.00000000000E+00 0.  1.
</event>
<event>
 5   0  0.2147244E+06  0.9118800E+02  0.7546771E-02  0.1180000E+00
      -11   -1    0    0    0    0  0.00000000000E+00  0.00000000000E+00  0.34996269501E-01  0.35000000000E-01  0.51099999109E-03 0. -1.
       11   -1    0    0    0    0 -0.00000000000E+00 -0.00000000000E+00 -0.34996269501E-01  0.35000000000E-01  0.51099999109E-03 0.  1.
       22    1    1    2    0    0 -0.71637092906E-03 -0.16808572125E-02 -0.34952273075E-01  0.34999998020E-01  0.00000000000E+00 0.  1.
       22    1    1    2    0    0  0.71637494309E-03  0.16808511992E-02  0.34952268875E-01  0.34999993619E-01  0.00000000000E+00 0. -1.
       22    1    1    2    0    0 -0.40140296471E-08  0.60133470802E-08  0.41999677726E-08  0.83613698881E-08  0.00000000000E+00 0. -1.
</event>
<event>
 5   0  0.2147244E+06  0.9118800E+02  0.7546771E-02  0.1180000E+00
      -11   -1    0    0    0    0  0.00000000000E+00  0.00000000000E+00  0.34996269501E-01  0.35000000000E-01  0.51099999109E-03 0. -1.
       11   -1    0    0    0    0 -0.00000000000E+00 -0.00000000000E+00 -0.34996269501E-01  0.35000000000E-01  0.51099999109E-03 0.  1.
       22    1    1    2    0    0 -0.85741314453E-04 -0.24788487187E-04 -0.87015676936E-03  0.87472215323E-03  0.00000000000E+00 0. -1.
       22    1    1    2    0    0 -0.99773564713E-02 -0.16254429992E-01 -0.28366227545E-01  0.34181822679E-01  0.00000000000E+00 0.  1.
       22    1    1    2    0    0  0.10063097786E-01  0.16279218479E-01  0.29236384314E-01  0.34943455168E-01  0.00000000000E+00 0. -1.
</event>
<event>
 5   0  0.2147244E+06  0.9118800E+02  0.7546771E-02  0.1180000E+00
      -11   -1    0    0    0    0  0.00000000000E+00  0.00000000000E+00  0.34996269501E-01  0.35000000000E-01  0.51099999109E-03 0. -1.
       11   -1    0    0    0    0 -0.00000000000E+00 -0.00000000000E+00 -0.34996269501E-01  0.35000000000E-01  0.51099999109E-03 0.  1.
       22    1    1    2    0    0 -0.37808479428E-02 -0.41197927463E-02  0.34541957279E-01  0.34991632087E-01  0.00000000000E+00 0. -1.
       22    1    1    2    0    0  0.20772258757E-05 -0.24442051579E-05  0.80814433746E-05  0.86947532001E-05  0.00000000000E+00 0.  1.
       22    1    1    2    0    0  0.37787707169E-02  0.41222369514E-02 -0.34550038722E-01  0.34999673160E-01  0.00000000000E+00 0.  1.
</event>
<event>
 5   0  0.2147244E+06  0.9118800E+02  0.7546771E-02  0.1180000E+00
      -11   -1    0    0    0    0  0.00000000000E+00  0.00000000000E+00  0.34996269501E-01  0.35000000000E-01  0.51099999109E-03 0. -1.
       11   -1    0    0    0    0 -0.00000000000E+00 -0.00000000000E+00 -0.34996269501E-01  0.35000000000E-01  0.51099999109E-03 0.  1.
       22    1    1    2    0    0  0.41737533608E-03  0.13760723831E-02 -0.34970443010E-01  0.34999995167E-01  0.00000000000E+00 0.  1.
       22    1    1    2    0    0 -0.56810569415E-07  0.53814375920E-09  0.15323052181E-06  0.16342375351E-06  0.00000000000E+00 0.  1.
       22    1    1    2    0    0 -0.41731852551E-03 -0.13760729212E-02  0.34970289779E-01  0.34999841409E-01  0.00000000000E+00 0. -1.
</event>
<event>
 5   0  0.2147244E+06  0.9118800E+02  0.7546771E-02  0.1180000E+00
      -11   -1    0    0    0    0  0.00000000000E+00  0.00000000000E+00  0.34996269501E-01  0.35000000000E-01  0.51099999109E-03 0.  1.
       11   -1    0    0    0    0 -0.00000000000E+00 -0.00000000000E+00 -0.34996269501E-01  0.35000000000E-01  0.51099999109E-03 0.  1.
       22    1    1    2    0    0 -0.99041112283E-09 -0.92490944657E-09  0.23601566407E-08  0.27215273368E-08  0.00000000000E+00 0.  1.
       22    1    1    2    0    0  0.99049231062E-09  0.92498526494E-09  0.35002004575E-01  0.34999997459E-01  0.00000000000E+00 0.  1.
       22    1    1    2    0    0 -0.81187795639E-13 -0.75818372191E-13 -0.35002006935E-01  0.34999999819E-01  0.00000000000E+00 0.  1.
</event>
<event>
 5   0  0.2147244E+06  0.9118800E+02  0.7546771E-02  0.1180000E+00
      -11   -1    0    0    0    0  0.00000000000E+00  0.00000000000E+00  0.34996269501E-01  0.35000000000E-01  0.51099999109E-03 0.  1.
       11   -1    0    0    0    0 -0.00000000000E+00 -0.00000000000E+00 -0.34996269501E-01  0.35000000000E-01  0.51099999109E-03 0.  1.
       22    1    1    2    0    0  0.18180890614E-02  0.52036745614E-03 -0.10530691244E-01  0.10699144274E-01  0.00000000000E+00 0. -1.
       22    1    1    2    0    0  0.24633128924E-03 -0.15077192965E-03 -0.24352732056E-01  0.24354444560E-01  0.00000000000E+00 0.  1.
       22    1    1    2    0    0 -0.20644203506E-02 -0.36959552650E-03  0.34883423300E-01  0.34946411165E-01  0.00000000000E+00 0.  1.
</event>
<event>
 5   0  0.2147244E+06  0.9118800E+02  0.7546771E-02  0.1180000E+00
      -11   -1    0    0    0    0  0.00000000000E+00  0.00000000000E+00  0.34996269501E-01  0.35000000000E-01  0.51099999109E-03 0.  1.
       11   -1    0    0    0    0 -0.00000000000E+00 -0.00000000000E+00 -0.34996269501E-01  0.35000000000E-01  0.51099999109E-03 0. -1.
       22    1    1    2    0    0 -0.18536434478E-03  0.16335915303E-02  0.34960384850E-01  0.34999021274E-01  0.00000000000E+00 0.  1.
       22    1    1    2    0    0  0.13077321674E-07 -0.39971472404E-07  0.97978346177E-06  0.98068566162E-06  0.00000000000E+00 0. -1.
       22    1    1    2    0    0  0.18535126746E-03 -0.16335515588E-02 -0.34961364634E-01  0.34999998041E-01  0.00000000000E+00 0. -1.
</event>
<event>
 5   0  0.2147244E+06  0.9118800E+02  0.7546771E-02  0.1180000E+00
      -11   -1    0    0    0    0  0.00000000000E+00  0.00000000000E+00  0.34996269501E-01  0.35000000000E-01  0.51099999109E-03 0. -1.
       11   -1    0    0    0    0 -0.00000000000E+00 -0.00000000000E+00 -0.34996269501E-01  0.35000000000E-01  0.51099999109E-03 0.  1.
       22    1    1    2    0    0 -0.11940650405E-02 -0.36392745384E-03  0.34963210972E-01  0.34985487791E-01  0.00000000000E+00 0. -1.
       22    1    1    2    0    0 -0.98332049091E-06  0.27479252711E-06  0.14483494813E-04  0.14519437046E-04  0.00000000000E+00 0.  1.
       22    1    1    2    0    0  0.11950483610E-02  0.36365266132E-03 -0.34977694467E-01  0.34999992772E-01  0.00000000000E+00 0.  1.
</event>
<event>
 5   0  0.2147244E+06  0.9118800E+02  0.7546771E-02  0.1180000E+00
      -11   -1    0    0    0    0  0.00000000000E+00  0.00000000000E+00  0.34996269501E-01  0.35000000000E-01  0.51099999109E-03 0.  1.
       11   -1    0    0    0    0 -0.00000000000E+00 -0.00000000000E+00 -0.34996269501E-01  0.35000000000E-01  0.51099999109E-03 0. -1.
       22    1    1    2    0    0 -0.62132354767E-04 -0.33560422476E-04 -0.85026717606E-03  0.85319458634E-03  0.00000000000E+00 0. -1.
       22    1    1    2    0    0  0.13349375097E-02  0.10643154241E-01 -0.32448512560E-01  0.34175499378E-01  0.00000000000E+00 0. -1.
       22    1    1    2    0    0 -0.12728051549E-02 -0.10609593819E-01  0.33298779736E-01  0.34971306036E-01  0.00000000000E+00 0.  1.
</event>
<event>
 5   0  0.2147244E+06  0.9118800E+02  0.7546771E-02  0.1180000E+00
      -11   -1    0    0    0    0  0.00000000000E+00  0.00000000000E+00  0.34996269501E-01  0.35000000000E-01  0.51099999109E-03 0. -1.
       11   -1    0    0    0    0 -0.00000000000E+00 -0.00000000000E+00 -0.34996269501E-01  0.35000000000E-01  0.51099999109E-03 0.  1.
       22    1    1    2    0    0 -0.10738836042E-07 -0.47982921846E-09  0.40101249689E-07  0.41517021356E-07  0.00000000000E+00 0.  1.
       22    1    1    2    0    0 -0.17727798751E-01 -0.80136250566E-02  0.29094744385E-01  0.34999959799E-01  0.00000000000E+00 0.  1.
       22    1    1    2    0    0  0.17727809490E-01  0.80136255365E-02 -0.29094784487E-01  0.34999998684E-01  0.00000000000E+00 0. -1.
</event>
<event>
 5   0  0.2147244E+06  0.9118800E+02  0.7546771E-02  0.1180000E+00
      -11   -1    0    0    0    0  0.00000000000E+00  0.00000000000E+00  0.34996269501E-01  0.35000000000E-01  0.51099999109E-03 0. -1.
       11   -1    0    0    0    0 -0.00000000000E+00 -0.00000000000E+00 -0.34996269501E-01  0.35000000000E-01  0.51099999109E-03 0. -1.
       22    1    1    2    0    0 -0.00000000000E+00 -0.00000000000E+00  0.88174974256E-02  0.88166313600E-02  0.00000000000E+00 0. -1.
       22    1    1    2    0    0  0.13891308494E-01  0.23907519189E-01 -0.16862560955E-01  0.32386476922E-01  0.00000000000E+00 0. -1.
       22    1    1    2    0    0 -0.13891308494E-01 -0.23907519189E-01  0.80450635299E-02  0.28796891718E-01  0.00000000000E+00 0.  1.
</event>
<event>
 5   0  0.2147244E+06  0.9118800E+02  0.7546771E-02  0.1180000E+00
      -11   -1    0    0    0    0  0.00000000000E+00  0.00000000000E+00  0.34996269501E-01  0.35000000000E-01  0.51099999109E-03 0.  1.
       11   -1    0    0    0    0 -0.00000000000E+00 -0.00000000000E+00 -0.34996269501E-01  0.35000000000E-01  0.51099999109E-03 0. -1.
       22    1    1    2    0    0  0.22769577458E-02  0.49344091884E-02  0.33326584638E-01  0.33766761382E-01  0.00000000000E+00 0.  1.
       22    1    1    2    0    0 -0.51213704131E-02 -0.80260203827E-02 -0.27084191140E-01  0.28708863575E-01  0.00000000000E+00 0. -1.
       22    1    1    2    0    0  0.28444126673E-02  0.30916111943E-02 -0.62423934982E-02  0.75243750428E-02  0.00000000000E+00 0. -1.
</event>
<event>
 5   0  0.2147244E+06  0.9118800E+02  0.7546771E-02  0.1180000E+00
      -11   -1    0    0    0    0  0.00000000000E+00  0.00000000000E+00  0.34996269501E-01  0.35000000000E-01  0.51099999109E-03 0.  1.
       11   -1    0    0    0    0 -0.00000000000E+00 -0.00000000000E+00 -0.34996269501E-01  0.35000000000E-01  0.51099999109E-03 0. -1.
       22    1    1    2    0    0 -0.46506042278E-03 -0.60766373599E-02  0.34441140390E-01  0.34976191247E-01  0.00000000000E+00 0.  1.
       22    1    1    2    0    0  0.65510747517E-05  0.11619473934E-04  0.23260920760E-04  0.26814160242E-04  0.00000000000E+00 0. -1.
       22    1    1    2    0    0  0.45850934803E-03  0.60650178860E-02 -0.34464401311E-01  0.34996994592E-01  0.00000000000E+00 0. -1.
</event>
<event>
 5   0  0.2147244E+06  0.9118800E+02  0.7546771E-02  0.1180000E+00
      -11   -1    0    0    0    0  0.00000000000E+00  0.00000000000E+00  0.34996269501E-01  0.35000000000E-01  0.51099999109E-03 0.  1.
       11   -1    0    0    0    0 -0.00000000000E+00 -0.00000000000E+00 -0.34996269501E-01  0.35000000000E-01  0.51099999109E-03 0. -1.
       22    1    1    2    0    0 -0.21804495075E-02 -0.15983237347E-02 -0.34895262912E-01  0.34999833893E-01  0.00000000000E+00 0. -1.
       22    1    1    2    0    0 -0.23194444142E-05 -0.14680147256E-06  0.33637463540E-04  0.33717656005E-04  0.00000000000E+00 0.  1.
       22    1    1    2    0    0  0.21827689519E-02  0.15984705361E-02  0.34861625449E-01  0.34966448451E-01  0.00000000000E+00 0.  1.
</event>
<event>
 5   0  0.2147244E+06  0.9118800E+02  0.7546771E-02  0.1180000E+00
      -11   -1    0    0    0    0  0.00000000000E+00  0.00000000000E+00  0.34996269501E-01  0.35000000000E-01  0.51099999109E-03 0.  1.
       11   -1    0    0    0    0 -0.00000000000E+00 -0.00000000000E+00 -0.34996269501E-01  0.35000000000E-01  0.51099999109E-03 0. -1.
       22    1    1    2    0    0  0.78230254902E-02  0.29413797386E-01  0.15093489563E-01  0.33973292918E-01  0.00000000000E+00 0.  1.
       22    1    1    2    0    0 -0.75701912872E-02 -0.29499902114E-01 -0.16470442656E-01  0.34624088467E-01  0.00000000000E+00 0. -1.
       22    1    1    2    0    0 -0.25283420303E-03  0.86104727854E-04  0.13769530936E-02  0.14026186154E-02  0.00000000000E+00 0. -1.
</event>
<event>
 5   0  0.2147244E+06  0.9118800E+02  0.7546771E-02  0.1180000E+00
      -11   -1    0    0    0    0  0.00000000000E+00  0.00000000000E+00  0.34996269501E-01  0.35000000000E-01  0.51099999109E-03 0.  1.
       11   -1    0    0    0    0 -0.00000000000E+00 -0.00000000000E+00 -0.34996269501E-01  0.35000000000E-01  0.51099999109E-03 0. -1.
       22    1    1    2    0    0 -0.16373390681E-01 -0.71529837016E-03 -0.21404630771E-01  0.26958445664E-01  0.00000000000E+00 0. -1.
       22    1    1    2    0    0  0.72262514769E-02  0.75989467665E-02 -0.68706569608E-02  0.12536691327E-01  0.00000000000E+00 0.  1.
       22    1    1    2    0    0  0.91471392041E-02 -0.68836483963E-02  0.28275287732E-01  0.30504863009E-01  0.00000000000E+00 0.  1.
</event>
<event>
 5   0  0.2147244E+06  0.9118800E+02  0.7546771E-02  0.1180000E+00
      -11   -1    0    0    0    0  0.00000000000E+00  0.00000000000E+00  0.34996269501E-01  0.35000000000E-01  0.51099999109E-03 0. -1.
       11   -1    0    0    0    0 -0.00000000000E+00 -0.00000000000E+00 -0.34996269501E-01  0.35000000000E-01  0.51099999109E-03 0.  1.
       22    1    1    2    0    0 -0.15209374177E-01  0.14606334555E-02  0.31488705393E-01  0.34999958290E-01  0.00000000000E+00 0. -1.
       22    1    1    2    0    0  0.11249660101E-07 -0.70733597097E-08  0.45643755281E-07  0.47538822726E-07  0.00000000000E+00 0.  1.
       22    1    1    2    0    0  0.15209362928E-01 -0.14606263822E-02 -0.31488751037E-01  0.34999994171E-01  0.00000000000E+00 0.  1.
</event>
<event>
 5   0  0.2147244E+06  0.9118800E+02  0.7546771E-02  0.1180000E+00
      -11   -1    0    0    0    0  0.00000000000E+00  0.00000000000E+00  0.34996269501E-01  0.35000000000E-01  0.51099999109E-03 0.  1.
       11   -1    0    0    0    0 -0.00000000000E+00 -0.00000000000E+00 -0.34996269501E-01  0.35000000000E-01  0.51099999109E-03 0. -1.
       22    1    1    2    0    0 -0.79475783742E-02 -0.15712341291E-01 -0.30248278058E-01  0.34999999948E-01  0.00000000000E+00 0. -1.
       22    1    1    2    0    0  0.79475769612E-02  0.15712340116E-01  0.30248273897E-01  0.34999995503E-01  0.00000000000E+00 0.  1.
       22    1    1    2    0    0  0.14129214306E-08  0.11755747251E-08  0.41613244955E-08  0.45491696452E-08  0.00000000000E+00 0. -1.
</event>
<event>
 5   0  0.2147244E+06  0.9118800E+02  0.7546771E-02  0.1180000E+00
      -11   -1    0    0    0    0  0.00000000000E+00  0.00000000000E+00  0.34996269501E-01  0.35000000000E-01  0.51099999109E-03 0.  1.
       11   -1    0    0    0    0 -0.00000000000E+00 -0.00000000000E+00 -0.34996269501E-01  0.35000000000E-01  0.51099999109E-03 0. -1.
       22    1    1    2    0    0  0.56923062954E-02 -0.16052647725E-01  0.30575747279E-01  0.34999516734E-01  0.00000000000E+00 0.  1.
       22    1    1    2    0    0 -0.29686418754E-06  0.17454665080E-07  0.50245956377E-06  0.58386524507E-06  0.00000000000E+00 0.  1.
       22    1    1    2    0    0 -0.56920094312E-02  0.16052630270E-01 -0.30576249739E-01  0.34999899401E-01  0.00000000000E+00 0. -1.
</event>
<event>
 5   0  0.2147244E+06  0.9118800E+02  0.7546771E-02  0.1180000E+00
      -11   -1    0    0    0    0  0.00000000000E+00  0.00000000000E+00  0.34996269501E-01  0.35000000000E-01  0.51099999109E-03 0.  1.
       11   -1    0    0    0    0 -0.00000000000E+00 -0.00000000000E+00 -0.34996269501E-01  0.35000000000E-01  0.51099999109E-03 0. -1.
       22    1    1    2    0    0  0.46313433550E-03 -0.15296436229E-02 -0.25066849536E-01  0.25117747684E-01  0.00000000000E+00 0. -1.
       22    1    1    2    0    0 -0.63303323319E-02  0.73693389485E-02  0.32398843146E-01  0.33824034372E-01  0.00000000000E+00 0.  1.
       22    1    1    2    0    0  0.58671979964E-02 -0.58396953255E-02 -0.73319936097E-02  0.11058217945E-01  0.00000000000E+00 0. -1.
</event>
<event>
 5   0  0.2147244E+06  0.9118800E+02  0.7546771E-02  0.1180000E+00
      -11   -1    0    0    0    0  0.00000000000E+00  0.00000000000E+00  0.34996269501E-01  0.35000000000E-01  0.51099999109E-03 0. -1.
       11   -1    0    0    0    0 -0.00000000000E+00 -0.00000000000E+00 -0.34996269501E-01  0.35000000000E-01  0.51099999109E-03 0.  1.
       22    1    1    2    0    0 -0.33474208045E-04 -0.46192714182E-04 -0.10348235026E-03  0.11816465742E-03  0.00000000000E+00 0. -1.
       22    1    1    2    0    0  0.27422704688E-02  0.35060888214E-02 -0.34608131088E-01  0.34893200535E-01  0.00000000000E+00 0.  1.
       22    1    1    2    0    0 -0.27087962607E-02 -0.34598961073E-02  0.34711613438E-01  0.34988634808E-01  0.00000000000E+00 0. -1.
</event>
<event>
 5   0  0.2147244E+06  0.9118800E+02  0.7546771E-02  0.1180000E+00
      -11   -1    0    0    0    0  0.00000000000E+00  0.00000000000E+00  0.34996269501E-01  0.35000000000E-01  0.51099999109E-03 0.  1.
       11   -1    0    0    0    0 -0.00000000000E+00 -0.00000000000E+00 -0.34996269501E-01  0.35000000000E-01  0.51099999109E-03 0. -1.
       22    1    1    2    0    0 -0.70550868959E-04  0.83207088322E-04  0.15352212243E-04  0.11016594337E-03  0.00000000000E+00 0.  1.
       22    1    1    2    0    0 -0.47604228462E-02 -0.33624169264E-02  0.34446898916E-01  0.34936461157E-01  0.00000000000E+00 0.  1.
       22    1    1    2    0    0  0.48309737151E-02  0.32792098381E-02 -0.34462251128E-01  0.34953372899E-01  0.00000000000E+00 0. -1.
</event>
<event>
 5   0  0.2147244E+06  0.9118800E+02  0.7546771E-02  0.1180000E+00
      -11   -1    0    0    0    0  0.00000000000E+00  0.00000000000E+00  0.34996269501E-01  0.35000000000E-01  0.51099999109E-03 0.  1.
       11   -1    0    0    0    0 -0.00000000000E+00 -0.00000000000E+00 -0.34996269501E-01  0.35000000000E-01  0.51099999109E-03 0. -1.
       22    1    1    2    0    0  0.17153899238E-02 -0.42512198849E-02  0.34686267049E-01  0.34987891547E-01  0.00000000000E+00 0.  1.
       22    1    1    2    0    0 -0.17192481831E-02  0.42429852981E-02 -0.34697181584E-01  0.34997902058E-01  0.00000000000E+00 0. -1.
       22    1    1    2    0    0  0.38582593904E-05  0.82345867631E-05  0.10914535107E-04  0.14206395084E-04  0.00000000000E+00 0.  1.
</event>
<event>
 5   0  0.2147244E+06  0.9118800E+02  0.7546771E-02  0.1180000E+00
      -11   -1    0    0    0    0  0.00000000000E+00  0.00000000000E+00  0.34996269501E-01  0.35000000000E-01  0.51099999109E-03 0.  1.
       11   -1    0    0    0    0 -0.00000000000E+00 -0.00000000000E+00 -0.34996269501E-01  0.35000000000E-01  0.51099999109E-03 0. -1.
       22    1    1    2    0    0  0.13655880768E-08  0.44488881905E-09  0.47935504459E-08  0.50040866034E-08  0.00000000000E+00 0.  1.
       22    1    1    2    0    0 -0.10013200185E-02  0.20765245297E-02  0.34923989778E-01  0.34999995113E-01  0.00000000000E+00 0.  1.
       22    1    1    2    0    0  0.10013186529E-02 -0.20765249746E-02 -0.34923994571E-01  0.34999999883E-01  0.00000000000E+00 0. -1.
</event>
<event>
 5   0  0.2147244E+06  0.9118800E+02  0.7546771E-02  0.1180000E+00
      -11   -1    0    0    0    0  0.00000000000E+00  0.00000000000E+00  0.34996269501E-01  0.35000000000E-01  0.51099999109E-03 0.  1.
       11   -1    0    0    0    0 -0.00000000000E+00 -0.00000000000E+00 -0.34996269501E-01  0.35000000000E-01  0.51099999109E-03 0. -1.
       22    1    1    2    0    0  0.27278582258E-02 -0.16929826722E-02  0.34846591177E-01  0.34994175479E-01  0.00000000000E+00 0.  1.
       22    1    1    2    0    0 -0.27263444425E-02  0.16913439990E-02 -0.34852316726E-01  0.34999679709E-01  0.00000000000E+00 0. -1.
       22    1    1    2    0    0 -0.15137833353E-05  0.16386732509E-05  0.57255496844E-05  0.61448115674E-05  0.00000000000E+00 0.  1.
</event>
<event>
 5   0  0.2147244E+06  0.9118800E+02  0.7546771E-02  0.1180000E+00
      -11   -1    0    0    0    0  0.00000000000E+00  0.00000000000E+00  0.34996269501E-01  0.35000000000E-01  0.51099999109E-03 0. -1.
       11   -1    0    0    0    0 -0.00000000000E+00 -0.00000000000E+00 -0.34996269501E-01  0.35000000000E-01  0.51099999109E-03 0.  1.
       22    1    1    2    0    0  0.71495564860E-02  0.43867169929E-02  0.33979981774E-01  0.34999980076E-01  0.00000000000E+00 0. -1.
       22    1    1    2    0    0 -0.71495703173E-02 -0.43867105584E-02 -0.33979997886E-01  0.34999997737E-01  0.00000000000E+00 0.  1.
       22    1    1    2    0    0  0.13831296895E-07 -0.64345737262E-08  0.16111438888E-07  0.22187541006E-07  0.00000000000E+00 0. -1.
</event>
<event>
 5   0  0.2147244E+06  0.9118800E+02  0.7546771E-02  0.1180000E+00
      -11   -1    0    0    0    0  0.00000000000E+00  0.00000000000E+00  0.34996269501E-01  0.35000000000E-01  0.51099999109E-03 0.  1.
       11   -1    0    0    0    0 -0.00000000000E+00 -0.00000000000E+00 -0.34996269501E-01  0.35000000000E-01  0.51099999109E-03 0. -1.
       22    1    1    2    0    0 -0.16675572663E-03 -0.29365160183E-02 -0.34876196057E-01  0.34999999789E-01  0.00000000000E+00 0. -1.
       22    1    1    2    0    0  0.38278791682E-09 -0.37089569479E-09  0.16618277625E-09  0.55830719214E-09  0.00000000000E+00 0.  1.
       22    1    1    2    0    0  0.16675534384E-03  0.29365163892E-02  0.34876195891E-01  0.34999999653E-01  0.00000000000E+00 0.  1.
</event>
<event>
 5   0  0.2147244E+06  0.9118800E+02  0.7546771E-02  0.1180000E+00
      -11   -1    0    0    0    0  0.00000000000E+00  0.00000000000E+00  0.34996269501E-01  0.35000000000E-01  0.51099999109E-03 0.  1.
       11   -1    0    0    0    0 -0.00000000000E+00 -0.00000000000E+00 -0.34996269501E-01  0.35000000000E-01  0.51099999109E-03 0. -1.
       22    1    1    2    0    0  0.57388117544E-02  0.60349046022E-02 -0.32843721555E-01  0.33883094303E-01  0.00000000000E+00 0. -1.
       22    1    1    2    0    0  0.71255357449E-03  0.27406182229E-03  0.21985213997E-01  0.21998465332E-01  0.00000000000E+00 0.  1.
       22    1    1    2    0    0 -0.64513653289E-02 -0.63089664245E-02  0.10858507559E-01  0.14118440366E-01  0.00000000000E+00 0.  1.
</event>
<event>
 5   0  0.2147244E+06  0.9118800E+02  0.7546771E-02  0.1180000E+00
      -11   -1    0    0    0    0  0.00000000000E+00  0.00000000000E+00  0.34996269501E-01  0.35000000000E-01  0.51099999109E-03 0. -1.
       11   -1    0    0    0    0 -0.00000000000E+00 -0.00000000000E+00 -0.34996269501E-01  0.35000000000E-01  0.51099999109E-03 0.  1.
       22    1    1    2    0    0  0.63709382876E-07 -0.42840979343E-07  0.44647189894E-07  0.88812198165E-07  0.00000000000E+00 0. -1.
       22    1    1    2    0    0  0.37923229656E-02 -0.85240577037E-02 -0.33733611098E-01  0.34999968441E-01  0.00000000000E+00 0.  1.
       22    1    1    2    0    0 -0.37923866750E-02  0.85241005447E-02  0.33733566450E-01  0.34999942746E-01  0.00000000000E+00 0. -1.
</event>
<event>
 5   0  0.2147244E+06  0.9118800E+02  0.7546771E-02  0.1180000E+00
      -11   -1    0    0    0    0  0.00000000000E+00  0.00000000000E+00  0.34996269501E-01  0.35000000000E-01  0.51099999109E-03 0.  1.
       11   -1    0    0    0    0 -0.00000000000E+00 -0.00000000000E+00 -0.34996269501E-01  0.35000000000E-01  0.51099999109E-03 0. -1.
       22    1    1    2    0    0  0.39232038101E-03  0.70133987861E-03 -0.34977177383E-01  0.34986407797E-01  0.00000000000E+00 0. -1.
       22    1    1    2    0    0 -0.60855076260E-04  0.11347219311E-03  0.31561586769E-03  0.34087043705E-03  0.00000000000E+00 0. -1.
       22    1    1    2    0    0 -0.33146530475E-03 -0.81481207172E-03  0.34661561515E-01  0.34672721765E-01  0.00000000000E+00 0.  1.
</event>
<event>
 5   0  0.2147244E+06  0.9118800E+02  0.7546771E-02  0.1180000E+00
      -11   -1    0    0    0    0  0.00000000000E+00  0.00000000000E+00  0.34996269501E-01  0.35000000000E-01  0.51099999109E-03 0. -1.
       11   -1    0    0    0    0 -0.00000000000E+00 -0.00000000000E+00 -0.34996269501E-01  0.35000000000E-01  0.51099999109E-03 0.  1.
       22    1    1    2    0    0 -0.46111873419E-04 -0.73978920299E-03  0.34992120287E-01  0.34999969951E-01  0.00000000000E+00 0. -1.
       22    1    1    2    0    0  0.46118958723E-04  0.73978375571E-03 -0.34992149729E-01  0.34999999281E-01  0.00000000000E+00 0.  1.
       22    1    1    2    0    0 -0.70853040742E-08  0.54472729302E-08  0.29442362121E-07  0.30768929189E-07  0.00000000000E+00 0.  1.
</event>
<event>
 5   0  0.2147244E+06  0.9118800E+02  0.7546771E-02  0.1180000E+00
      -11   -1    0    0    0    0  0.00000000000E+00  0.00000000000E+00  0.34996269501E-01  0.35000000000E-01  0.51099999109E-03 0.  1.
       11   -1    0    0    0    0 -0.00000000000E+00 -0.00000000000E+00 -0.34996269501E-01  0.35000000000E-01  0.51099999109E-03 0. -1.
       22    1    1    2    0    0  0.44122386879E-03  0.81357383730E-03 -0.34987543014E-01  0.34999782100E-01  0.00000000000E+00 0. -1.
       22    1    1    2    0    0 -0.43438722141E-03 -0.82017236572E-03  0.34845352517E-01  0.34857710294E-01  0.00000000000E+00 0.  1.
       22    1    1    2    0    0 -0.68366473741E-05  0.65985284172E-05  0.14219049699E-03  0.14250760597E-03  0.00000000000E+00 0. -1.
</event>
<event>
 5   0  0.2147244E+06  0.9118800E+02  0.7546771E-02  0.1180000E+00
      -11   -1    0    0    0    0  0.00000000000E+00  0.00000000000E+00  0.34996269501E-01  0.35000000000E-01  0.51099999109E-03 0. -1.
       11   -1    0    0    0    0 -0.00000000000E+00 -0.00000000000E+00 -0.34996269501E-01  0.35000000000E-01  0.51099999109E-03 0.  1.
       22    1    1    2    0    0 -0.10905386082E-02 -0.52478365635E-03  0.34887483316E-01  0.34908468377E-01  0.00000000000E+00 0. -1.
       22    1    1    2    0    0 -0.10418365913E-05  0.36560577977E-05  0.91530680802E-04  0.91609593986E-04  0.00000000000E+00 0. -1.
       22    1    1    2    0    0  0.10915804448E-02  0.52112759855E-03 -0.34979013997E-01  0.34999922029E-01  0.00000000000E+00 0.  1.
</event>
<event>
 5   0  0.2147244E+06  0.9118800E+02  0.7546771E-02  0.1180000E+00
      -11   -1    0    0    0    0  0.00000000000E+00  0.00000000000E+00  0.34996269501E-01  0.35000000000E-01  0.51099999109E-03 0.  1.
       11   -1    0    0    0    0 -0.00000000000E+00 -0.00000000000E+00 -0.34996269501E-01  0.35000000000E-01  0.51099999109E-03 0. -1.
       22    1    1    2    0    0 -0.11143325644E-03  0.49511005250E-03 -0.12476883552E-02  0.13469512116E-02  0.00000000000E+00 0.  1.
       22    1    1    2    0    0 -0.93194281483E-02 -0.12876835373E-01 -0.29883428341E-01  0.33847952961E-01  0.00000000000E+00 0. -1.
       22    1    1    2    0    0  0.94308614047E-02  0.12381725321E-01  0.31131116697E-01  0.34805095827E-01  0.00000000000E+00 0.  1.
</event>
<event>
 5   0  0.2147244E+06  0.9118800E+02  0.7546771E-02  0.1180000E+00
      -11   -1    0    0    0    0  0.00000000000E+00  0.00000000000E+00  0.34996269501E-01  0.35000000000E-01  0.51099999109E-03 0.  1.
       11   -1    0    0    0    0 -0.00000000000E+00 -0.00000000000E+00 -0.34996269501E-01  0.35000000000E-01  0.51099999109E-03 0. -1.
       22    1    1    2    0    0  0.75553082066E-03 -0.47630907225E-02 -0.34661535156E-01  0.34995426550E-01  0.00000000000E+00 0. -1.
       22    1    1    2    0    0 -0.11760639709E-03  0.79398089746E-04  0.59669553362E-03  0.61333586324E-03  0.00000000000E+00 0. -1.
       22    1    1    2    0    0 -0.63792442357E-03  0.46836926328E-02  0.34064839622E-01  0.34391237587E-01  0.00000000000E+00 0.  1.
</event>
<event>
 5   0  0.2147244E+06  0.9118800E+02  0.7546771E-02  0.1180000E+00
      -11   -1    0    0    0    0  0.00000000000E+00  0.00000000000E+00  0.34996269501E-01  0.35000000000E-01  0.51099999109E-03 0.  1.
       11   -1    0    0    0    0 -0.00000000000E+00 -0.00000000000E+00 -0.34996269501E-01  0.35000000000E-01  0.51099999109E-03 0. -1.
       22    1    1    2    0    0  0.10870645536E-02  0.61433394490E-03 -0.34297497126E-01  0.34320218890E-01  0.00000000000E+00 0. -1.
       22    1    1    2    0    0 -0.21274989509E-04  0.39240021109E-03 -0.61862661238E-03  0.73289114907E-03  0.00000000000E+00 0. -1.
       22    1    1    2    0    0 -0.10657895640E-02 -0.10067341560E-02  0.34916123738E-01  0.34946889961E-01  0.00000000000E+00 0.  1.
</event>
<event>
 5   0  0.2147244E+06  0.9118800E+02  0.7546771E-02  0.1180000E+00
      -11   -1    0    0    0    0  0.00000000000E+00  0.00000000000E+00  0.34996269501E-01  0.35000000000E-01  0.51099999109E-03 0.  1.
       11   -1    0    0    0    0 -0.00000000000E+00 -0.00000000000E+00 -0.34996269501E-01  0.35000000000E-01  0.51099999109E-03 0. -1.
       22    1    1    2    0    0  0.21845306429E-02 -0.16651520610E-03 -0.17609580761E-01  0.17745344066E-01  0.00000000000E+00 0. -1.
       22    1    1    2    0    0 -0.22295251680E-02 -0.48598196684E-03  0.34888659875E-01  0.34963202782E-01  0.00000000000E+00 0.  1.
       22    1    1    2    0    0  0.44994525096E-04  0.65249717293E-03 -0.17279079114E-01  0.17291453152E-01  0.00000000000E+00 0. -1.
</event>
<event>
 5   0  0.2147244E+06  0.9118800E+02  0.7546771E-02  0.1180000E+00
      -11   -1    0    0    0    0  0.00000000000E+00  0.00000000000E+00  0.34996269501E-01  0.35000000000E-01  0.51099999109E-03 0. -1.
       11   -1    0    0    0    0 -0.00000000000E+00 -0.00000000000E+00 -0.34996269501E-01  0.35000000000E-01  0.51099999109E-03 0.  1.
       22    1    1    2    0    0 -0.86586714654E-08 -0.13702570767E-09  0.32530966594E-07  0.33663855321E-07  0.00000000000E+00 0. -1.
       22    1    1    2    0    0 -0.10532995886E-03  0.38900165463E-03  0.34997646574E-01  0.34999966891E-01  0.00000000000E+00 0. -1.
       22    1    1    2    0    0  0.10533861754E-03 -0.38900151760E-03 -0.34997679105E-01  0.34999999445E-01  0.00000000000E+00 0.  1.
</event>
<event>
 5   0  0.2147244E+06  0.9118800E+02  0.7546771E-02  0.1180000E+00
      -11   -1    0    0    0    0  0.00000000000E+00  0.00000000000E+00  0.34996269501E-01  0.35000000000E-01  0.51099999109E-03 0. -1.
       11   -1    0    0    0    0 -0.00000000000E+00 -0.00000000000E+00 -0.34996269501E-01  0.35000000000E-01  0.51099999109E-03 0.  1.
       22    1    1    2    0    0 -0.14665372798E-02  0.71853785982E-04  0.30370650928E-01  0.30406123270E-01  0.00000000000E+00 0. -1.
       22    1    1    2    0    0  0.96679735222E-03  0.48358274544E-03 -0.34943587363E-01  0.34960303877E-01  0.00000000000E+00 0.  1.
       22    1    1    2    0    0  0.49973992759E-03 -0.55543653143E-03  0.45729364354E-02  0.46335728524E-02  0.00000000000E+00 0. -1.
</event>
<event>
 5   0  0.2147244E+06  0.9118800E+02  0.7546771E-02  0.1180000E+00
      -11   -1    0    0    0    0  0.00000000000E+00  0.00000000000E+00  0.34996269501E-01  0.35000000000E-01  0.51099999109E-03 0.  1.
       11   -1    0    0    0    0 -0.00000000000E+00 -0.00000000000E+00 -0.34996269501E-01  0.35000000000E-01  0.51099999109E-03 0.  1.
       22    1    1    2    0    0 -0.89177063782E-08  0.17261301682E-08  0.82680791087E-08  0.12282758019E-07  0.00000000000E+00 0.  1.
       22    1    1    2    0    0  0.40460394113E-05 -0.55992269339E-03 -0.34995518723E-01  0.34999998006E-01  0.00000000000E+00 0.  1.
       22    1    1    2    0    0 -0.40371217049E-05  0.55992096726E-03  0.34995510454E-01  0.34999989711E-01  0.00000000000E+00 0.  1.
</event>
<event>
 5   0  0.2147244E+06  0.9118800E+02  0.7546771E-02  0.1180000E+00
      -11   -1    0    0    0    0  0.00000000000E+00  0.00000000000E+00  0.34996269501E-01  0.35000000000E-01  0.51099999109E-03 0. -1.
       11   -1    0    0    0    0 -0.00000000000E+00 -0.00000000000E+00 -0.34996269501E-01  0.35000000000E-01  0.51099999109E-03 0.  1.
       22    1    1    2    0    0  0.12052402329E-07  0.14530354838E-08  0.22866664253E-06  0.22898865718E-06  0.00000000000E+00 0.  1.
       22    1    1    2    0    0 -0.90726105930E-03 -0.31714831954E-03 -0.34986801675E-01  0.34999999959E-01  0.00000000000E+00 0.  1.
       22    1    1    2    0    0  0.90724900690E-03  0.31714686651E-03  0.34986573008E-01  0.34999771053E-01  0.00000000000E+00 0. -1.
</event>
<event>
 5   0  0.2147244E+06  0.9118800E+02  0.7546771E-02  0.1180000E+00
      -11   -1    0    0    0    0  0.00000000000E+00  0.00000000000E+00  0.34996269501E-01  0.35000000000E-01  0.51099999109E-03 0.  1.
       11   -1    0    0    0    0 -0.00000000000E+00 -0.00000000000E+00 -0.34996269501E-01  0.35000000000E-01  0.51099999109E-03 0. -1.
       22    1    1    2    0    0  0.26783717092E-03 -0.16878359773E-03  0.11808755926E-02  0.12225758947E-02  0.00000000000E+00 0. -1.
       22    1    1    2    0    0  0.23803470926E-02  0.35757489158E-02  0.33527641328E-01  0.33801697674E-01  0.00000000000E+00 0.  1.
       22    1    1    2    0    0 -0.26481842635E-02 -0.34069653181E-02 -0.34708516921E-01  0.34975726432E-01  0.00000000000E+00 0. -1.
</event>
<event>
 5   0  0.2147244E+06  0.9118800E+02  0.7546771E-02  0.1180000E+00
      -11   -1    0    0    0    0  0.00000000000E+00  0.00000000000E+00  0.34996269501E-01  0.35000000000E-01  0.51099999109E-03 0. -1.
       11   -1    0    0    0    0 -0.00000000000E+00 -0.00000000000E+00 -0.34996269501E-01  0.35000000000E-01  0.51099999109E-03 0.  1.
       22    1    1    2    0    0 -0.11043710648E-02 -0.22951490208E-02  0.11989060041E-02  0.28150879353E-02  0.00000000000E+00 0. -1.
       22    1    1    2    0    0 -0.21530086474E-01  0.59282447602E-02  0.24228020785E-01  0.32949745077E-01  0.00000000000E+00 0. -1.
       22    1    1    2    0    0  0.22634457539E-01 -0.36330957394E-02 -0.25426926789E-01  0.34235166987E-01  0.00000000000E+00 0.  1.
</event>
<event>
 5   0  0.2147244E+06  0.9118800E+02  0.7546771E-02  0.1180000E+00
      -11   -1    0    0    0    0  0.00000000000E+00  0.00000000000E+00  0.34996269501E-01  0.35000000000E-01  0.51099999109E-03 0.  1.
       11   -1    0    0    0    0 -0.00000000000E+00 -0.00000000000E+00 -0.34996269501E-01  0.35000000000E-01  0.51099999109E-03 0. -1.
       22    1    1    2    0    0 -0.11749435549E-01 -0.18403818472E-02  0.32885586478E-01  0.34969959094E-01  0.00000000000E+00 0.  1.
       22    1    1    2    0    0  0.11753324221E-01  0.18418706395E-02 -0.32915688433E-01  0.34999652323E-01  0.00000000000E+00 0. -1.
       22    1    1    2    0    0 -0.38886717800E-05 -0.14887922641E-05  0.30101955003E-04  0.30388582817E-04  0.00000000000E+00 0.  1.
</event>
<event>
 5   0  0.2147244E+06  0.9118800E+02  0.7546771E-02  0.1180000E+00
      -11   -1    0    0    0    0  0.00000000000E+00  0.00000000000E+00  0.34996269501E-01  0.35000000000E-01  0.51099999109E-03 0. -1.
       11   -1    0    0    0    0 -0.00000000000E+00 -0.00000000000E+00 -0.34996269501E-01  0.35000000000E-01  0.51099999109E-03 0.  1.
       22    1    1    2    0    0 -0.23708029789E-08 -0.27772246003E-09  0.96690585431E-08  0.99593438357E-08  0.00000000000E+00 0.  1.
       22    1    1    2    0    0 -0.23996260117E-02 -0.23395649982E-02  0.34839166736E-01  0.34999990117E-01  0.00000000000E+00 0. -1.
       22    1    1    2    0    0  0.23996283825E-02  0.23395652759E-02 -0.34839176405E-01  0.34999999923E-01  0.00000000000E+00 0.  1.
</event>
<event>
 5   0  0.2147244E+06  0.9118800E+02  0.7546771E-02  0.1180000E+00
      -11   -1    0    0    0    0  0.00000000000E+00  0.00000000000E+00  0.34996269501E-01  0.35000000000E-01  0.51099999109E-03 0. -1.
       11   -1    0    0    0    0 -0.00000000000E+00 -0.00000000000E+00 -0.34996269501E-01  0.35000000000E-01  0.51099999109E-03 0.  1.
       22    1    1    2    0    0  0.12755945433E-01 -0.46219795171E-02 -0.32007252686E-01  0.34764077193E-01  0.00000000000E+00 0.  1.
       22    1    1    2    0    0 -0.46604207960E-04 -0.42045129717E-04  0.52348137120E-02  0.52351900008E-02  0.00000000000E+00 0.  1.
       22    1    1    2    0    0 -0.12709341225E-01  0.46640246468E-02  0.26772438974E-01  0.30000732806E-01  0.00000000000E+00 0. -1.
</event>
<event>
 5   0  0.2147244E+06  0.9118800E+02  0.7546771E-02  0.1180000E+00
      -11   -1    0    0    0    0  0.00000000000E+00  0.00000000000E+00  0.34996269501E-01  0.35000000000E-01  0.51099999109E-03 0.  1.
       11   -1    0    0    0    0 -0.00000000000E+00 -0.00000000000E+00 -0.34996269501E-01  0.35000000000E-01  0.51099999109E-03 0. -1.
       22    1    1    2    0    0  0.17626350429E-05 -0.23080093673E-05  0.22875715020E-03  0.22877558340E-03  0.00000000000E+00 0. -1.
       22    1    1    2    0    0 -0.18609938714E-02 -0.18714902148E-02 -0.34899994045E-01  0.34999647972E-01  0.00000000000E+00 0. -1.
       22    1    1    2    0    0  0.18592312364E-02  0.18737982241E-02  0.34671236895E-01  0.34771576444E-01  0.00000000000E+00 0.  1.
</event>
<event>
 5   0  0.2147244E+06  0.9118800E+02  0.7546771E-02  0.1180000E+00
      -11   -1    0    0    0    0  0.00000000000E+00  0.00000000000E+00  0.34996269501E-01  0.35000000000E-01  0.51099999109E-03 0.  1.
       11   -1    0    0    0    0 -0.00000000000E+00 -0.00000000000E+00 -0.34996269501E-01  0.35000000000E-01  0.51099999109E-03 0.  1.
       22    1    1    2    0    0 -0.18772985990E-02 -0.19198338535E-02 -0.34386683476E-01  0.34491361419E-01  0.00000000000E+00 0.  1.
       22    1    1    2    0    0  0.18772985990E-02  0.19198338535E-02  0.26423611850E-02  0.37672383369E-02  0.00000000000E+00 0. -1.
       22    1    1    2    0    0 -0.00000000000E+00  0.00000000000E+00  0.31744322291E-01  0.31741400244E-01  0.00000000000E+00 0.  1.
</event>
<event>
 5   0  0.2147244E+06  0.9118800E+02  0.7546771E-02  0.1180000E+00
      -11   -1    0    0    0    0  0.00000000000E+00  0.00000000000E+00  0.34996269501E-01  0.35000000000E-01  0.51099999109E-03 0. -1.
       11   -1    0    0    0    0 -0.00000000000E+00 -0.00000000000E+00 -0.34996269501E-01  0.35000000000E-01  0.51099999109E-03 0.  1.
       22    1    1    2    0    0  0.61231138046E-02  0.92194307826E-02 -0.32789689418E-01  0.34607140286E-01  0.00000000000E+00 0.  1.
       22    1    1    2    0    0 -0.67114721790E-02 -0.97528368450E-02  0.26141210634E-01  0.28697117952E-01  0.00000000000E+00 0. -1.
       22    1    1    2    0    0  0.58835837440E-03  0.53340606236E-03  0.66484787845E-02  0.66957417626E-02  0.00000000000E+00 0.  1.
</event>
<event>
 5   0  0.2147244E+06  0.9118800E+02  0.7546771E-02  0.1180000E+00
      -11   -1    0    0    0    0  0.00000000000E+00  0.00000000000E+00  0.34996269501E-01  0.35000000000E-01  0.51099999109E-03 0. -1.
       11   -1    0    0    0    0 -0.00000000000E+00 -0.00000000000E+00 -0.34996269501E-01  0.35000000000E-01  0.51099999109E-03 0.  1.
       22    1    1    2    0    0 -0.24381717252E-01  0.43872330135E-02  0.21976718111E-01  0.33116341715E-01  0.00000000000E+00 0. -1.
       22    1    1    2    0    0  0.24241389981E-01 -0.47195437466E-02 -0.13017680865E-01  0.27917361918E-01  0.00000000000E+00 0.  1.
       22    1    1    2    0    0  0.14032727140E-03  0.33231073310E-03 -0.89590372453E-02  0.89662963663E-02  0.00000000000E+00 0. -1.
</event>
<event>
 5   0  0.2147244E+06  0.9118800E+02  0.7546771E-02  0.1180000E+00
      -11   -1    0    0    0    0  0.00000000000E+00  0.00000000000E+00  0.34996269501E-01  0.35000000000E-01  0.51099999109E-03 0. -1.
       11   -1    0    0    0    0 -0.00000000000E+00 -0.00000000000E+00 -0.34996269501E-01  0.35000000000E-01  0.51099999109E-03 0.  1.
       22    1    1    2    0    0  0.28714371597E-02 -0.79395341552E-02  0.33966405378E-01  0.34999972118E-01  0.00000000000E+00 0. -1.
       22    1    1    2    0    0  0.90908223144E-08  0.27504099370E-08  0.27426785483E-07  0.29024754385E-07  0.00000000000E+00 0.  1.
       22    1    1    2    0    0 -0.28714462506E-02  0.79395314048E-02 -0.33966432805E-01  0.34999998857E-01  0.00000000000E+00 0.  1.
</event>
<event>
 5   0  0.2147244E+06  0.9118800E+02  0.7546771E-02  0.1180000E+00
      -11   -1    0    0    0    0  0.00000000000E+00  0.00000000000E+00  0.34996269501E-01  0.35000000000E-01  0.51099999109E-03 0.  1.
       11   -1    0    0    0    0 -0.00000000000E+00 -0.00000000000E+00 -0.34996269501E-01  0.35000000000E-01  0.51099999109E-03 0. -1.
       22    1    1    2    0    0 -0.68373051899E-03  0.65668134873E-02 -0.34361788752E-01  0.34990327993E-01  0.00000000000E+00 0. -1.
       22    1    1    2    0    0 -0.13341173519E-04 -0.22614300627E-04  0.31882525882E-05  0.26449167440E-04  0.00000000000E+00 0. -1.
       22    1    1    2    0    0  0.69707169251E-03 -0.65441991867E-02  0.34358600500E-01  0.34983222840E-01  0.00000000000E+00 0.  1.
</event>
<event>
 5   0  0.2147244E+06  0.9118800E+02  0.7546771E-02  0.1180000E+00
      -11   -1    0    0    0    0  0.00000000000E+00  0.00000000000E+00  0.34996269501E-01  0.35000000000E-01  0.51099999109E-03 0.  1.
       11   -1    0    0    0    0 -0.00000000000E+00 -0.00000000000E+00 -0.34996269501E-01  0.35000000000E-01  0.51099999109E-03 0.  1.
       22    1    1    2    0    0 -0.00000000000E+00 -0.00000000000E+00  0.34984076871E-01  0.34983656497E-01  0.00000000000E+00 0.  1.
       22    1    1    2    0    0  0.52838467213E-04 -0.39559802680E-04 -0.34932534537E-01  0.34932596899E-01  0.00000000000E+00 0.  1.
       22    1    1    2    0    0 -0.52838467213E-04  0.39559802680E-04 -0.51542333390E-04  0.83746604330E-04  0.00000000000E+00 0. -1.
</event>
<event>
 5   0  0.2147244E+06  0.9118800E+02  0.7546771E-02  0.1180000E+00
      -11   -1    0    0    0    0  0.00000000000E+00  0.00000000000E+00  0.34996269501E-01  0.35000000000E-01  0.51099999109E-03 0. -1.
       11   -1    0    0    0    0 -0.00000000000E+00 -0.00000000000E+00 -0.34996269501E-01  0.35000000000E-01  0.51099999109E-03 0.  1.
       22    1    1    2    0    0 -0.50465788044E-02  0.14873181097E-02 -0.25501353493E-01  0.26038415903E-01  0.00000000000E+00 0.  1.
       22    1    1    2    0    0  0.15261371844E-02  0.31547240671E-03 -0.90507016208E-02  0.91838890114E-02  0.00000000000E+00 0. -1.
       22    1    1    2    0    0  0.35204416200E-02 -0.18027905164E-02  0.34552055114E-01  0.34777695085E-01  0.00000000000E+00 0. -1.
</event>
<event>
 5   0  0.2147244E+06  0.9118800E+02  0.7546771E-02  0.1180000E+00
      -11   -1    0    0    0    0  0.00000000000E+00  0.00000000000E+00  0.34996269501E-01  0.35000000000E-01  0.51099999109E-03 0. -1.
       11   -1    0    0    0    0 -0.00000000000E+00 -0.00000000000E+00 -0.34996269501E-01  0.35000000000E-01  0.51099999109E-03 0.  1.
       22    1    1    2    0    0  0.16713907074E-07  0.86178988078E-08  0.11329848192E-07  0.21954232612E-07  0.00000000000E+00 0. -1.
       22    1    1    2    0    0 -0.44092295004E-02 -0.26708773162E-03 -0.34720124716E-01  0.34999995728E-01  0.00000000000E+00 0.  1.
       22    1    1    2    0    0  0.44092127865E-02  0.26707911372E-03  0.34720113387E-01  0.34999982318E-01  0.00000000000E+00 0. -1.
</event>
<event>
 5   0  0.2147244E+06  0.9118800E+02  0.7546771E-02  0.1180000E+00
      -11   -1    0    0    0    0  0.00000000000E+00  0.00000000000E+00  0.34996269501E-01  0.35000000000E-01  0.51099999109E-03 0.  1.
       11   -1    0    0    0    0 -0.00000000000E+00 -0.00000000000E+00 -0.34996269501E-01  0.35000000000E-01  0.51099999109E-03 0. -1.
       22    1    1    2    0    0 -0.67860049242E-03 -0.94399105147E-03 -0.34446634444E-01  0.34466247871E-01  0.00000000000E+00 0. -1.
       22    1    1    2    0    0  0.44490034025E-03 -0.29689391713E-03 -0.39771698803E-03  0.66652915417E-03  0.00000000000E+00 0.  1.
       22    1    1    2    0    0  0.23370015217E-03  0.12408849686E-02  0.34844351432E-01  0.34867222975E-01  0.00000000000E+00 0.  1.
</event>
<event>
 5   0  0.2147244E+06  0.9118800E+02  0.7546771E-02  0.1180000E+00
      -11   -1    0    0    0    0  0.00000000000E+00  0.00000000000E+00  0.34996269501E-01  0.35000000000E-01  0.51099999109E-03 0.  1.
       11   -1    0    0    0    0 -0.00000000000E+00 -0.00000000000E+00 -0.34996269501E-01  0.35000000000E-01  0.51099999109E-03 0. -1.
       22    1    1    2    0    0 -0.83564671543E-02 -0.35791669124E-02  0.33798470509E-01  0.34999679824E-01  0.00000000000E+00 0.  1.
       22    1    1    2    0    0 -0.95472097053E-08 -0.56362388849E-08  0.32421656868E-06  0.32440607240E-06  0.00000000000E+00 0. -1.
       22    1    1    2    0    0  0.83564767015E-02  0.35791725486E-02 -0.33798794725E-01  0.34999995770E-01  0.00000000000E+00 0. -1.
</event>
<event>
 5   0  0.2147244E+06  0.9118800E+02  0.7546771E-02  0.1180000E+00
      -11   -1    0    0    0    0  0.00000000000E+00  0.00000000000E+00  0.34996269501E-01  0.35000000000E-01  0.51099999109E-03 0.  1.
       11   -1    0    0    0    0 -0.00000000000E+00 -0.00000000000E+00 -0.34996269501E-01  0.35000000000E-01  0.51099999109E-03 0. -1.
       22    1    1    2    0    0 -0.57782247561E-03 -0.64314620431E-02 -0.34399162544E-01  0.34999999522E-01  0.00000000000E+00 0. -1.
       22    1    1    2    0    0 -0.28293508687E-08  0.67001771208E-08  0.12817746926E-07  0.14737443335E-07  0.00000000000E+00 0.  1.
       22    1    1    2    0    0  0.57782530496E-03  0.64314553429E-02  0.34399149726E-01  0.34999985740E-01  0.00000000000E+00 0.  1.
</event>
<event>
 5   0  0.2147244E+06  0.9118800E+02  0.7546771E-02  0.1180000E+00
      -11   -1    0    0    0    0  0.00000000000E+00  0.00000000000E+00  0.34996269501E-01  0.35000000000E-01  0.51099999109E-03 0. -1.
       11   -1    0    0    0    0 -0.00000000000E+00 -0.00000000000E+00 -0.34996269501E-01  0.35000000000E-01  0.51099999109E-03 0.  1.
       22    1    1    2    0    0 -0.61103715757E-03 -0.15056355549E-02 -0.34962168907E-01  0.34999907993E-01  0.00000000000E+00 0.  1.
       22    1    1    2    0    0 -0.12813506113E-06  0.65994340518E-09 -0.45784230468E-07  0.13607066243E-06  0.00000000000E+00 0. -1.
       22    1    1    2    0    0  0.61116529263E-03  0.15056348950E-02  0.34962214691E-01  0.34999955937E-01  0.00000000000E+00 0. -1.
</event>
<event>
 5   0  0.2147244E+06  0.9118800E+02  0.7546771E-02  0.1180000E+00
      -11   -1    0    0    0    0  0.00000000000E+00  0.00000000000E+00  0.34996269501E-01  0.35000000000E-01  0.51099999109E-03 0.  1.
       11   -1    0    0    0    0 -0.00000000000E+00 -0.00000000000E+00 -0.34996269501E-01  0.35000000000E-01  0.51099999109E-03 0. -1.
       22    1    1    2    0    0 -0.46193601888E-03  0.24421186671E-03 -0.72795849106E-02  0.72983135581E-02  0.00000000000E+00 0. -1.
       22    1    1    2    0    0 -0.61646006712E-02 -0.58379795926E-02 -0.26499938231E-01  0.27826804226E-01  0.00000000000E+00 0. -1.
       22    1    1    2    0    0  0.66265366901E-02  0.55937677259E-02  0.33779523142E-01  0.34874882216E-01  0.00000000000E+00 0.  1.
</event>
<event>
 5   0  0.2147244E+06  0.9118800E+02  0.7546771E-02  0.1180000E+00
      -11   -1    0    0    0    0  0.00000000000E+00  0.00000000000E+00  0.34996269501E-01  0.35000000000E-01  0.51099999109E-03 0.  1.
       11   -1    0    0    0    0 -0.00000000000E+00 -0.00000000000E+00 -0.34996269501E-01  0.35000000000E-01  0.51099999109E-03 0. -1.
       22    1    1    2    0    0  0.11058369548E-08  0.15777323046E-09  0.39576468844E-09  0.11850727621E-08  0.00000000000E+00 0. -1.
       22    1    1    2    0    0 -0.59127561452E-02 -0.13462857919E-02 -0.34470665910E-01  0.34999999699E-01  0.00000000000E+00 0. -1.
       22    1    1    2    0    0  0.59127550393E-02  0.13462856341E-02  0.34470665514E-01  0.34999999116E-01  0.00000000000E+00 0.  1.
</event>
<event>
 5   0  0.2147244E+06  0.9118800E+02  0.7546771E-02  0.1180000E+00
      -11   -1    0    0    0    0  0.00000000000E+00  0.00000000000E+00  0.34996269501E-01  0.35000000000E-01  0.51099999109E-03 0.  1.
       11   -1    0    0    0    0 -0.00000000000E+00 -0.00000000000E+00 -0.34996269501E-01  0.35000000000E-01  0.51099999109E-03 0. -1.
       22    1    1    2    0    0 -0.22115589889E-04 -0.88273324535E-04 -0.10645375531E-03  0.14004885277E-03  0.00000000000E+00 0.  1.
       22    1    1    2    0    0 -0.22225117723E-03  0.15487578317E-02  0.34949974543E-01  0.34984979162E-01  0.00000000000E+00 0.  1.
       22    1    1    2    0    0  0.24436676712E-03 -0.14604845072E-02 -0.34843520788E-01  0.34874971985E-01  0.00000000000E+00 0. -1.
</event>
<event>
 5   0  0.2147244E+06  0.9118800E+02  0.7546771E-02  0.1180000E+00
      -11   -1    0    0    0    0  0.00000000000E+00  0.00000000000E+00  0.34996269501E-01  0.35000000000E-01  0.51099999109E-03 0.  1.
       11   -1    0    0    0    0 -0.00000000000E+00 -0.00000000000E+00 -0.34996269501E-01  0.35000000000E-01  0.51099999109E-03 0. -1.
       22    1    1    2    0    0  0.23979090014E-07 -0.79747912157E-08  0.33274613380E-06  0.33370433562E-06  0.00000000000E+00 0.  1.
       22    1    1    2    0    0 -0.77022759260E-03 -0.21167631496E-03 -0.34990883424E-01  0.34999999717E-01  0.00000000000E+00 0. -1.
       22    1    1    2    0    0  0.77020361351E-03  0.21168428975E-03  0.34990550678E-01  0.34999666578E-01  0.00000000000E+00 0.  1.
</event>
<event>
 5   0  0.2147244E+06  0.9118800E+02  0.7546771E-02  0.1180000E+00
      -11   -1    0    0    0    0  0.00000000000E+00  0.00000000000E+00  0.34996269501E-01  0.35000000000E-01  0.51099999109E-03 0.  1.
       11   -1    0    0    0    0 -0.00000000000E+00 -0.00000000000E+00 -0.34996269501E-01  0.35000000000E-01  0.51099999109E-03 0. -1.
       22    1    1    2    0    0  0.55984530793E-04 -0.91589085454E-04 -0.53616473556E-03  0.54680476581E-03  0.00000000000E+00 0. -1.
       22    1    1    2    0    0  0.10283058461E-02 -0.34445495044E-01 -0.36181545548E-02  0.34650260953E-01  0.00000000000E+00 0. -1.
       22    1    1    2    0    0 -0.10842903769E-02  0.34537084130E-01  0.41543192904E-02  0.34802934281E-01  0.00000000000E+00 0.  1.
</event>
<event>
 5   0  0.2147244E+06  0.9118800E+02  0.7546771E-02  0.1180000E+00
      -11   -1    0    0    0    0  0.00000000000E+00  0.00000000000E+00  0.34996269501E-01  0.35000000000E-01  0.51099999109E-03 0. -1.
       11   -1    0    0    0    0 -0.00000000000E+00 -0.00000000000E+00 -0.34996269501E-01  0.35000000000E-01  0.51099999109E-03 0.  1.
       22    1    1    2    0    0  0.94817432149E-05 -0.10173185476E-03 -0.23094838070E-02  0.23117427903E-02  0.00000000000E+00 0.  1.
       22    1    1    2    0    0 -0.15960508851E-01  0.10757794831E-01  0.29007972451E-01  0.34812791588E-01  0.00000000000E+00 0. -1.
       22    1    1    2    0    0  0.15951027108E-01 -0.10656062976E-01 -0.26698488644E-01  0.32875465622E-01  0.00000000000E+00 0.  1.
</event>
<event>
 5   0  0.2147244E+06  0.9118800E+02  0.7546771E-02  0.1180000E+00
      -11   -1    0    0    0    0  0.00000000000E+00  0.00000000000E+00  0.34996269501E-01  0.35000000000E-01  0.51099999109E-03 0.  1.
       11   -1    0    0    0    0 -0.00000000000E+00 -0.00000000000E+00 -0.34996269501E-01  0.35000000000E-01  0.51099999109E-03 0. -1.
       22    1    1    2    0    0 -0.19169383957E-02 -0.32035021950E-03  0.24861380879E-01  0.24937231929E-01  0.00000000000E+00 0.  1.
       22    1    1    2    0    0 -0.12209620645E-01  0.81274704243E-02  0.86457348862E-03  0.14692790719E-01  0.00000000000E+00 0.  1.
       22    1    1    2    0    0  0.14126559041E-01 -0.78071202048E-02 -0.25725954368E-01  0.30369977352E-01  0.00000000000E+00 0. -1.
</event>
<event>
 5   0  0.2147244E+06  0.9118800E+02  0.7546771E-02  0.1180000E+00
      -11   -1    0    0    0    0  0.00000000000E+00  0.00000000000E+00  0.34996269501E-01  0.35000000000E-01  0.51099999109E-03 0. -1.
       11   -1    0    0    0    0 -0.00000000000E+00 -0.00000000000E+00 -0.34996269501E-01  0.35000000000E-01  0.51099999109E-03 0. -1.
       22    1    1    2    0    0  0.73872664322E-05 -0.25038091230E-05  0.41714317908E-05  0.88454286866E-05  0.00000000000E+00 0. -1.
       22    1    1    2    0    0 -0.51059003365E-03  0.20364012541E-03  0.34989234767E-01  0.34993552564E-01  0.00000000000E+00 0. -1.
       22    1    1    2    0    0  0.50320276722E-03 -0.20113631628E-03 -0.34993406199E-01  0.34997602007E-01  0.00000000000E+00 0. -1.
</event>
<event>
 5   0  0.2147244E+06  0.9118800E+02  0.7546771E-02  0.1180000E+00
      -11   -1    0    0    0    0  0.00000000000E+00  0.00000000000E+00  0.34996269501E-01  0.35000000000E-01  0.51099999109E-03 0. -1.
       11   -1    0    0    0    0 -0.00000000000E+00 -0.00000000000E+00 -0.34996269501E-01  0.35000000000E-01  0.51099999109E-03 0.  1.
       22    1    1    2    0    0  0.12063692157E-02  0.16772290527E-02  0.10428561151E-03  0.20686467724E-02  0.00000000000E+00 0. -1.
       22    1    1    2    0    0  0.84011174700E-03 -0.26934982421E-03  0.33862435394E-01  0.33873926077E-01  0.00000000000E+00 0. -1.
       22    1    1    2    0    0 -0.20464809627E-02 -0.14078792285E-02 -0.33966721005E-01  0.34057427150E-01  0.00000000000E+00 0.  1.
</event>
