<event>
 5   0  0.7631359E+07  0.9118800E+02  0.7546771E-02  0.1180000E+00
      -11   -1    0    0    0    0  0.00000000000E+00  0.00000000000E+00  0.34996269501E-01  0.35000000000E-01  0.51099999109E-03 0.  1.
       11   -1    0    0    0    0 -0.00000000000E+00 -0.00000000000E+00 -0.34996269501E-01  0.35000000000E-01  0.51099999109E-03 0. -1.
       22    1    1    2    0    0  0.27308314188E-04 -0.10187608608E-04  0.40542295609E-03  0.40646931584E-03  0.00000000000E+00 0. -1.
       22    1    1    2    0    0  0.39372984915E-03  0.11328006149E-02 -0.34978808655E-01  0.34999361642E-01  0.00000000000E+00 0. -1.
       22    1    1    2    0    0 -0.42103816334E-03 -0.11226130063E-02  0.34573385698E-01  0.34594169043E-01  0.00000000000E+00 0.  1.
</event>
<event>
 5   0  0.7631359E+07  0.9118800E+02  0.7546771E-02  0.1180000E+00
      -11   -1    0    0    0    0  0.00000000000E+00  0.00000000000E+00  0.34996269501E-01  0.35000000000E-01  0.51099999109E-03 0. -1.
       11   -1    0    0    0    0 -0.00000000000E+00 -0.00000000000E+00 -0.34996269501E-01  0.35000000000E-01  0.51099999109E-03 0.  1.
       22    1    1    2    0    0  0.12861615185E-01  0.13001549511E-01  0.29841891279E-01  0.34999998713E-01  0.00000000000E+00 0. -1.
       22    1    1    2    0    0 -0.90167879874E-10 -0.71807265215E-09  0.14591662316E-08  0.16287801177E-08  0.00000000000E+00 0. -1.
       22    1    1    2    0    0 -0.12861615095E-01 -0.13001548793E-01 -0.29841892738E-01  0.34999999658E-01  0.00000000000E+00 0.  1.
</event>
<event>
 5   0  0.7631359E+07  0.9118800E+02  0.7546771E-02  0.1180000E+00
      -11   -1    0    0    0    0  0.00000000000E+00  0.00000000000E+00  0.34996269501E-01  0.35000000000E-01  0.51099999109E-03 0. -1.
       11   -1    0    0    0    0 -0.00000000000E+00 -0.00000000000E+00 -0.34996269501E-01  0.35000000000E-01  0.51099999109E-03 0.  1.
       22    1    1    2    0    0 -0.72014194708E-03 -0.88344528724E-03 -0.34981256195E-01  0.34999819500E-01  0.00000000000E+00 0.  1.
       22    1    1    2    0    0 -0.35367306772E-06  0.19715318527E-06  0.49221387640E-07  0.40789307704E-06  0.00000000000E+00 0. -1.
       22    1    1    2    0    0  0.72049562014E-03  0.88324813405E-03  0.34981206974E-01  0.34999772607E-01  0.00000000000E+00 0. -1.
</event>
<event>
 5   0  0.7631359E+07  0.9118800E+02  0.7546771E-02  0.1180000E+00
      -11   -1    0    0    0    0  0.00000000000E+00  0.00000000000E+00  0.34996269501E-01  0.35000000000E-01  0.51099999109E-03 0. -1.
       11   -1    0    0    0    0 -0.00000000000E+00 -0.00000000000E+00 -0.34996269501E-01  0.35000000000E-01  0.51099999109E-03 0.  1.
       22    1    1    2    0    0  0.67222960097E-07  0.10495352554E-06  0.49190573732E-07  0.13399209466E-06  0.00000000000E+00 0. -1.
       22    1    1    2    0    0  0.23451855607E-02  0.16626666218E-02  0.34881641399E-01  0.34999903747E-01  0.00000000000E+00 0. -1.
       22    1    1    2    0    0 -0.23452527837E-02 -0.16627715753E-02 -0.34881690589E-01  0.34999962261E-01  0.00000000000E+00 0.  1.
</event>
<event>
 5   0  0.7631359E+07  0.9118800E+02  0.7546771E-02  0.1180000E+00
      -11   -1    0    0    0    0  0.00000000000E+00  0.00000000000E+00  0.34996269501E-01  0.35000000000E-01  0.51099999109E-03 0. -1.
       11   -1    0    0    0    0 -0.00000000000E+00 -0.00000000000E+00 -0.34996269501E-01  0.35000000000E-01  0.51099999109E-03 0. -1.
       22    1    1    2    0    0 -0.11074849203E-02  0.14829886817E-03  0.34981701001E-01  0.34999541716E-01  0.00000000000E+00 0. -1.
       22    1    1    2    0    0 -0.78243255973E-06 -0.17151462103E-05 -0.15291341233E-05  0.24273809755E-05  0.00000000000E+00 0.  1.
       22    1    1    2    0    0  0.11082673529E-02 -0.14658372196E-03 -0.34980171866E-01  0.34998030903E-01  0.00000000000E+00 0. -1.
</event>
<event>
 5   0  0.7631359E+07  0.9118800E+02  0.7546771E-02  0.1180000E+00
      -11   -1    0    0    0    0  0.00000000000E+00  0.00000000000E+00  0.34996269501E-01  0.35000000000E-01  0.51099999109E-03 0.  1.
       11   -1    0    0    0    0 -0.00000000000E+00 -0.00000000000E+00 -0.34996269501E-01  0.35000000000E-01  0.51099999109E-03 0. -1.
       22    1    1    2    0    0  0.45281198744E-08 -0.41845532005E-08  0.43509139215E-07  0.43943822664E-07  0.00000000000E+00 0. -1.
       22    1    1    2    0    0  0.23051182289E-01  0.82726867727E-02 -0.25004102238E-01  0.34999992573E-01  0.00000000000E+00 0. -1.
       22    1    1    2    0    0 -0.23051186817E-01 -0.82726825882E-02  0.25004058729E-01  0.34999963483E-01  0.00000000000E+00 0.  1.
</event>
<event>
 5   0  0.7631359E+07  0.9118800E+02  0.7546771E-02  0.1180000E+00
      -11   -1    0    0    0    0  0.00000000000E+00  0.00000000000E+00  0.34996269501E-01  0.35000000000E-01  0.51099999109E-03 0. -1.
       11   -1    0    0    0    0 -0.00000000000E+00 -0.00000000000E+00 -0.34996269501E-01  0.35000000000E-01  0.51099999109E-03 0. -1.
       22    1    1    2    0    0 -0.39195517493E-02  0.14658049947E-02  0.31963525242E-01  0.32236290359E-01  0.00000000000E+00 0. -1.
       22    1    1    2    0    0  0.32522141608E-02 -0.14517903145E-02  0.18020841632E-02  0.39915034005E-02  0.00000000000E+00 0.  1.
       22    1    1    2    0    0  0.66733758851E-03 -0.14014680237E-04 -0.33765609405E-01  0.33772206241E-01  0.00000000000E+00 0. -1.
</event>
<event>
 5   0  0.7631359E+07  0.9118800E+02  0.7546771E-02  0.1180000E+00
      -11   -1    0    0    0    0  0.00000000000E+00  0.00000000000E+00  0.34996269501E-01  0.35000000000E-01  0.51099999109E-03 0. -1.
       11   -1    0    0    0    0 -0.00000000000E+00 -0.00000000000E+00 -0.34996269501E-01  0.35000000000E-01  0.51099999109E-03 0.  1.
       22    1    1    2    0    0 -0.33231399650E-03  0.18386045840E-03 -0.11927582913E-03  0.39807534946E-03  0.00000000000E+00 0.  1.
       22    1    1    2    0    0 -0.57654660906E-02  0.92493270812E-03 -0.34216552864E-01  0.34711217058E-01  0.00000000000E+00 0.  1.
       22    1    1    2    0    0  0.60977800871E-02 -0.11087931665E-02  0.34335828693E-01  0.34890707593E-01  0.00000000000E+00 0. -1.
</event>
<event>
 5   0  0.7631359E+07  0.9118800E+02  0.7546771E-02  0.1180000E+00
      -11   -1    0    0    0    0  0.00000000000E+00  0.00000000000E+00  0.34996269501E-01  0.35000000000E-01  0.51099999109E-03 0.  1.
       11   -1    0    0    0    0 -0.00000000000E+00 -0.00000000000E+00 -0.34996269501E-01  0.35000000000E-01  0.51099999109E-03 0. -1.
       22    1    1    2    0    0  0.12578895620E-02 -0.91031040832E-03 -0.34958844480E-01  0.34993310197E-01  0.00000000000E+00 0. -1.
       22    1    1    2    0    0 -0.11534374544E-03  0.61024761224E-04  0.45117697974E-03  0.46966889203E-03  0.00000000000E+00 0.  1.
       22    1    1    2    0    0 -0.11425458166E-02  0.84928564710E-03  0.34507667500E-01  0.34537020910E-01  0.00000000000E+00 0.  1.
</event>
<event>
 5   0  0.7631359E+07  0.9118800E+02  0.7546771E-02  0.1180000E+00
      -11   -1    0    0    0    0  0.00000000000E+00  0.00000000000E+00  0.34996269501E-01  0.35000000000E-01  0.51099999109E-03 0.  1.
       11   -1    0    0    0    0 -0.00000000000E+00 -0.00000000000E+00 -0.34996269501E-01  0.35000000000E-01  0.51099999109E-03 0. -1.
       22    1    1    2    0    0  0.98559732676E-06 -0.87508725748E-06  0.73644724431E-06  0.15098126845E-05  0.00000000000E+00 0.  1.
       22    1    1    2    0    0  0.92620519810E-03 -0.10754631329E-02 -0.34970796091E-01  0.34999586516E-01  0.00000000000E+00 0. -1.
       22    1    1    2    0    0 -0.92719079543E-03  0.10763382202E-02  0.34970059644E-01  0.34998903672E-01  0.00000000000E+00 0.  1.
</event>
<event>
 5   0  0.7631359E+07  0.9118800E+02  0.7546771E-02  0.1180000E+00
      -11   -1    0    0    0    0  0.00000000000E+00  0.00000000000E+00  0.34996269501E-01  0.35000000000E-01  0.51099999109E-03 0.  1.
       11   -1    0    0    0    0 -0.00000000000E+00 -0.00000000000E+00 -0.34996269501E-01  0.35000000000E-01  0.51099999109E-03 0. -1.
       22    1    1    2    0    0 -0.24111797322E-03  0.24726946270E-03  0.98552212755E-04  0.35915540206E-03  0.00000000000E+00 0. -1.
       22    1    1    2    0    0  0.34970093077E-02  0.99124700100E-03  0.34588678328E-01  0.34779136177E-01  0.00000000000E+00 0.  1.
       22    1    1    2    0    0 -0.32558913345E-02 -0.12385164637E-02 -0.34687230541E-01  0.34861708421E-01  0.00000000000E+00 0. -1.
</event>
<event>
 5   0  0.7631359E+07  0.9118800E+02  0.7546771E-02  0.1180000E+00
      -11   -1    0    0    0    0  0.00000000000E+00  0.00000000000E+00  0.34996269501E-01  0.35000000000E-01  0.51099999109E-03 0.  1.
       11   -1    0    0    0    0 -0.00000000000E+00 -0.00000000000E+00 -0.34996269501E-01  0.35000000000E-01  0.51099999109E-03 0. -1.
       22    1    1    2    0    0 -0.10230412033E-02  0.10347382290E-02  0.34913988275E-01  0.34944296727E-01  0.00000000000E+00 0.  1.
       22    1    1    2    0    0  0.12010634773E-02  0.14788983323E-03 -0.62099364366E-02  0.63267476183E-02  0.00000000000E+00 0. -1.
       22    1    1    2    0    0 -0.17802227404E-03 -0.11826280622E-02 -0.28704051838E-01  0.28728955654E-01  0.00000000000E+00 0. -1.
</event>
<event>
 5   0  0.7631359E+07  0.9118800E+02  0.7546771E-02  0.1180000E+00
      -11   -1    0    0    0    0  0.00000000000E+00  0.00000000000E+00  0.34996269501E-01  0.35000000000E-01  0.51099999109E-03 0. -1.
       11   -1    0    0    0    0 -0.00000000000E+00 -0.00000000000E+00 -0.34996269501E-01  0.35000000000E-01  0.51099999109E-03 0.  1.
       22    1    1    2    0    0 -0.38808031976E-02 -0.16957453592E-01  0.30370776650E-01  0.34999999144E-01  0.00000000000E+00 0. -1.
       22    1    1    2    0    0  0.38808041052E-02  0.16957454237E-01 -0.30370776843E-01  0.34999999725E-01  0.00000000000E+00 0.  1.
       22    1    1    2    0    0 -0.90765944498E-09 -0.64504419881E-09  0.19330152814E-09  0.11301739544E-08  0.00000000000E+00 0.  1.
</event>
<event>
 5   0  0.7631359E+07  0.9118800E+02  0.7546771E-02  0.1180000E+00
      -11   -1    0    0    0    0  0.00000000000E+00  0.00000000000E+00  0.34996269501E-01  0.35000000000E-01  0.51099999109E-03 0. -1.
       11   -1    0    0    0    0 -0.00000000000E+00 -0.00000000000E+00 -0.34996269501E-01  0.35000000000E-01  0.51099999109E-03 0. -1.
       22    1    1    2    0    0 -0.49636318108E-03  0.22111949094E-03 -0.34995780282E-01  0.34999998682E-01  0.00000000000E+00 0. -1.
       22    1    1    2    0    0  0.49635854989E-03 -0.22112050387E-03  0.34995777458E-01  0.34999995800E-01  0.00000000000E+00 0. -1.
       22    1    1    2    0    0  0.46311913647E-08  0.10129328328E-08  0.28237110308E-08  0.55179081512E-08  0.00000000000E+00 0.  1.
</event>
<event>
 5   0  0.7631359E+07  0.9118800E+02  0.7546771E-02  0.1180000E+00
      -11   -1    0    0    0    0  0.00000000000E+00  0.00000000000E+00  0.34996269501E-01  0.35000000000E-01  0.51099999109E-03 0. -1.
       11   -1    0    0    0    0 -0.00000000000E+00 -0.00000000000E+00 -0.34996269501E-01  0.35000000000E-01  0.51099999109E-03 0.  1.
       22    1    1    2    0    0  0.16423293594E-03 -0.16226865220E-02  0.34961921808E-01  0.34999943722E-01  0.00000000000E+00 0. -1.
       22    1    1    2    0    0  0.10431697402E-07  0.56770795779E-08  0.55790448650E-07  0.57040544385E-07  0.00000000000E+00 0. -1.
       22    1    1    2    0    0 -0.16424336764E-03  0.16226808449E-02 -0.34961977599E-01  0.34999999238E-01  0.00000000000E+00 0.  1.
</event>
<event>
 5   0  0.7631359E+07  0.9118800E+02  0.7546771E-02  0.1180000E+00
      -11   -1    0    0    0    0  0.00000000000E+00  0.00000000000E+00  0.34996269501E-01  0.35000000000E-01  0.51099999109E-03 0. -1.
       11   -1    0    0    0    0 -0.00000000000E+00 -0.00000000000E+00 -0.34996269501E-01  0.35000000000E-01  0.51099999109E-03 0. -1.
       22    1    1    2    0    0 -0.66110029338E-03  0.31776337444E-03 -0.34754634157E-01  0.34762373661E-01  0.00000000000E+00 0. -1.
       22    1    1    2    0    0 -0.54568040617E-03  0.13356266642E-02  0.30309609987E-01  0.30343930584E-01  0.00000000000E+00 0. -1.
       22    1    1    2    0    0  0.12067806995E-02 -0.16533900387E-02  0.44450241697E-02  0.48936957553E-02  0.00000000000E+00 0.  1.
</event>
