<event>
 5   0  0.2896291E+08  0.9118800E+02  0.7546771E-02  0.1180000E+00
      -11   -1    0    0    0    0  0.00000000000E+00  0.00000000000E+00  0.34996269501E-01  0.35000000000E-01  0.51099999109E-03 0.  1.
       11   -1    0    0    0    0 -0.00000000000E+00 -0.00000000000E+00 -0.34996269501E-01  0.35000000000E-01  0.51099999109E-03 0. -1.
       22    1    1    2    0    0  0.70772590302E-02 -0.26426182944E-03  0.34274993190E-01  0.34999036956E-01  0.00000000000E+00 0.  1.
       22    1    1    2    0    0  0.20294926614E-06  0.21907795035E-05 -0.33009213343E-06  0.22247840466E-05  0.00000000000E+00 0. -1.
       22    1    1    2    0    0 -0.70774619794E-02  0.26207104994E-03 -0.34274663098E-01  0.34998738260E-01  0.00000000000E+00 0. -1.
</event>
<event>
 5   0  0.2896291E+08  0.9118800E+02  0.7546771E-02  0.1180000E+00
      -11   -1    0    0    0    0  0.00000000000E+00  0.00000000000E+00  0.34996269501E-01  0.35000000000E-01  0.51099999109E-03 0.  1.
       11   -1    0    0    0    0 -0.00000000000E+00 -0.00000000000E+00 -0.34996269501E-01  0.35000000000E-01  0.51099999109E-03 0. -1.
       22    1    1    2    0    0  0.36208614207E-03  0.64122933550E-04 -0.22239832171E-02  0.22541782261E-02  0.00000000000E+00 0. -1.
       22    1    1    2    0    0 -0.24679341947E-02  0.19224922907E-02  0.34850744489E-01  0.34990871199E-01  0.00000000000E+00 0.  1.
       22    1    1    2    0    0  0.21058480527E-02 -0.19866152243E-02 -0.32626761272E-01  0.32754950575E-01  0.00000000000E+00 0. -1.
</event>
<event>
 5   0  0.2896291E+08  0.9118800E+02  0.7546771E-02  0.1180000E+00
      -11   -1    0    0    0    0  0.00000000000E+00  0.00000000000E+00  0.34996269501E-01  0.35000000000E-01  0.51099999109E-03 0. -1.
       11   -1    0    0    0    0 -0.00000000000E+00 -0.00000000000E+00 -0.34996269501E-01  0.35000000000E-01  0.51099999109E-03 0.  1.
       22    1    1    2    0    0 -0.18235917230E-08 -0.19164212045E-09 -0.12843173588E-10  0.18336789309E-08  0.00000000000E+00 0.  1.
       22    1    1    2    0    0 -0.10580662688E-02  0.45256308767E-02  0.34690043185E-01  0.34999999074E-01  0.00000000000E+00 0. -1.
       22    1    1    2    0    0  0.10580680924E-02 -0.45256306851E-02 -0.34690043172E-01  0.34999999092E-01  0.00000000000E+00 0.  1.
</event>
<event>
 5   0  0.2896291E+08  0.9118800E+02  0.7546771E-02  0.1180000E+00
      -11   -1    0    0    0    0  0.00000000000E+00  0.00000000000E+00  0.34996269501E-01  0.35000000000E-01  0.51099999109E-03 0.  1.
       11   -1    0    0    0    0 -0.00000000000E+00 -0.00000000000E+00 -0.34996269501E-01  0.35000000000E-01  0.51099999109E-03 0. -1.
       22    1    1    2    0    0 -0.28993317571E-02 -0.71535793382E-02 -0.33869196507E-01  0.34737620730E-01  0.00000000000E+00 0. -1.
       22    1    1    2    0    0 -0.53002661375E-04  0.86823299620E-04 -0.26274307626E-03  0.28174721222E-03  0.00000000000E+00 0. -1.
       22    1    1    2    0    0  0.29523344185E-02  0.70667560386E-02  0.34131939583E-01  0.34980632057E-01  0.00000000000E+00 0.  1.
</event>
