<event>
 5   0  0.3987501E+07  0.9118800E+02  0.7546771E-02  0.1180000E+00
      -11   -1    0    0    0    0  0.00000000000E+00  0.00000000000E+00  0.34996269501E-01  0.35000000000E-01  0.51099999109E-03 0. -1.
       11   -1    0    0    0    0 -0.00000000000E+00 -0.00000000000E+00 -0.34996269501E-01  0.35000000000E-01  0.51099999109E-03 0.  1.
       22    1    1    2    0    0 -0.13765111413E-02  0.30163208048E-02 -0.34809940947E-01  0.34967484366E-01  0.00000000000E+00 0.  1.
       22    1    1    2    0    0  0.15567658077E-02 -0.26513674159E-02  0.33856518505E-01  0.33995839661E-01  0.00000000000E+00 0. -1.
       22    1    1    2    0    0 -0.18025466643E-03 -0.36495338887E-03  0.95342244204E-03  0.10366759734E-02  0.00000000000E+00 0. -1.
</event>
<event>
 5   0  0.3987501E+07  0.9118800E+02  0.7546771E-02  0.1180000E+00
      -11   -1    0    0    0    0  0.00000000000E+00  0.00000000000E+00  0.34996269501E-01  0.35000000000E-01  0.51099999109E-03 0.  1.
       11   -1    0    0    0    0 -0.00000000000E+00 -0.00000000000E+00 -0.34996269501E-01  0.35000000000E-01  0.51099999109E-03 0. -1.
       22    1    1    2    0    0  0.27082838068E-02 -0.18642855844E-01 -0.29497552748E-01  0.34999949904E-01  0.00000000000E+00 0. -1.
       22    1    1    2    0    0  0.10401619573E-06  0.75009554167E-07  0.77303525002E-06  0.78360021693E-06  0.00000000000E+00 0.  1.
       22    1    1    2    0    0 -0.27083878229E-02  0.18642780834E-01  0.29496779713E-01  0.34999266496E-01  0.00000000000E+00 0.  1.
</event>
<event>
 5   0  0.3987501E+07  0.9118800E+02  0.7546771E-02  0.1180000E+00
      -11   -1    0    0    0    0  0.00000000000E+00  0.00000000000E+00  0.34996269501E-01  0.35000000000E-01  0.51099999109E-03 0. -1.
       11   -1    0    0    0    0 -0.00000000000E+00 -0.00000000000E+00 -0.34996269501E-01  0.35000000000E-01  0.51099999109E-03 0.  1.
       22    1    1    2    0    0  0.43411235997E-02  0.71270356559E-02  0.33111428505E-01  0.34146840102E-01  0.00000000000E+00 0. -1.
       22    1    1    2    0    0 -0.43661643329E-02 -0.71250673434E-02 -0.33975834949E-01  0.34988388590E-01  0.00000000000E+00 0.  1.
       22    1    1    2    0    0  0.25040733225E-04 -0.19683125671E-05  0.86440644453E-03  0.86477130730E-03  0.00000000000E+00 0.  1.
</event>
<event>
 5   0  0.3987501E+07  0.9118800E+02  0.7546771E-02  0.1180000E+00
      -11   -1    0    0    0    0  0.00000000000E+00  0.00000000000E+00  0.34996269501E-01  0.35000000000E-01  0.51099999109E-03 0. -1.
       11   -1    0    0    0    0 -0.00000000000E+00 -0.00000000000E+00 -0.34996269501E-01  0.35000000000E-01  0.51099999109E-03 0.  1.
       22    1    1    2    0    0 -0.57364014294E-03  0.11263014703E-02  0.34119062428E-01  0.34142466796E-01  0.00000000000E+00 0. -1.
       22    1    1    2    0    0  0.58380584531E-03 -0.11316041106E-02 -0.34976674487E-01  0.34999844504E-01  0.00000000000E+00 0.  1.
       22    1    1    2    0    0 -0.10165702365E-04  0.53026402196E-05  0.85761205990E-03  0.85768869923E-03  0.00000000000E+00 0. -1.
</event>
<event>
 5   0  0.3987501E+07  0.9118800E+02  0.7546771E-02  0.1180000E+00
      -11   -1    0    0    0    0  0.00000000000E+00  0.00000000000E+00  0.34996269501E-01  0.35000000000E-01  0.51099999109E-03 0. -1.
       11   -1    0    0    0    0 -0.00000000000E+00 -0.00000000000E+00 -0.34996269501E-01  0.35000000000E-01  0.51099999109E-03 0.  1.
       22    1    1    2    0    0 -0.27885945231E-07 -0.62021364742E-08  0.29988703097E-07  0.41417565738E-07  0.00000000000E+00 0.  1.
       22    1    1    2    0    0  0.13383108425E-02  0.24495283900E-03  0.34973510871E-01  0.34999964863E-01  0.00000000000E+00 0. -1.
       22    1    1    2    0    0 -0.13382829565E-02 -0.24494663686E-03 -0.34973540859E-01  0.34999993719E-01  0.00000000000E+00 0.  1.
</event>
<event>
 5   0  0.3987501E+07  0.9118800E+02  0.7546771E-02  0.1180000E+00
      -11   -1    0    0    0    0  0.00000000000E+00  0.00000000000E+00  0.34996269501E-01  0.35000000000E-01  0.51099999109E-03 0.  1.
       11   -1    0    0    0    0 -0.00000000000E+00 -0.00000000000E+00 -0.34996269501E-01  0.35000000000E-01  0.51099999109E-03 0. -1.
       22    1    1    2    0    0 -0.42942631205E-03  0.16647684133E-02  0.34175109413E-01  0.34218327899E-01  0.00000000000E+00 0.  1.
       22    1    1    2    0    0  0.34085078335E-03 -0.13277711778E-03 -0.34243639185E-01  0.34245592909E-01  0.00000000000E+00 0. -1.
       22    1    1    2    0    0  0.88575528706E-04 -0.15319912955E-02  0.68529772205E-04  0.15360791918E-02  0.00000000000E+00 0. -1.
</event>
<event>
 5   0  0.3987501E+07  0.9118800E+02  0.7546771E-02  0.1180000E+00
      -11   -1    0    0    0    0  0.00000000000E+00  0.00000000000E+00  0.34996269501E-01  0.35000000000E-01  0.51099999109E-03 0. -1.
       11   -1    0    0    0    0 -0.00000000000E+00 -0.00000000000E+00 -0.34996269501E-01  0.35000000000E-01  0.51099999109E-03 0.  1.
       22    1    1    2    0    0 -0.11733576301E-01  0.76543500902E-02 -0.30004427373E-01  0.33113917771E-01  0.00000000000E+00 0.  1.
       22    1    1    2    0    0  0.65667701901E-02 -0.48331241725E-02  0.29906849742E-01  0.30998406758E-01  0.00000000000E+00 0. -1.
       22    1    1    2    0    0  0.51668061110E-02 -0.28212259177E-02  0.97577630770E-04  0.58876754718E-02  0.00000000000E+00 0. -1.
</event>
<event>
 5   0  0.3987501E+07  0.9118800E+02  0.7546771E-02  0.1180000E+00
      -11   -1    0    0    0    0  0.00000000000E+00  0.00000000000E+00  0.34996269501E-01  0.35000000000E-01  0.51099999109E-03 0.  1.
       11   -1    0    0    0    0 -0.00000000000E+00 -0.00000000000E+00 -0.34996269501E-01  0.35000000000E-01  0.51099999109E-03 0. -1.
       22    1    1    2    0    0 -0.80988145494E-02  0.35379599394E-02 -0.33164558447E-01  0.34321944797E-01  0.00000000000E+00 0. -1.
       22    1    1    2    0    0 -0.47273275711E-03 -0.44398465611E-02  0.96239105708E-02  0.10609211489E-01  0.00000000000E+00 0. -1.
       22    1    1    2    0    0  0.85715473065E-02  0.90188662169E-03  0.23540647877E-01  0.25068843714E-01  0.00000000000E+00 0.  1.
</event>
<event>
 5   0  0.3987501E+07  0.9118800E+02  0.7546771E-02  0.1180000E+00
      -11   -1    0    0    0    0  0.00000000000E+00  0.00000000000E+00  0.34996269501E-01  0.35000000000E-01  0.51099999109E-03 0.  1.
       11   -1    0    0    0    0 -0.00000000000E+00 -0.00000000000E+00 -0.34996269501E-01  0.35000000000E-01  0.51099999109E-03 0.  1.
       22    1    1    2    0    0 -0.20140923985E-03  0.21029091979E-03  0.28731796020E-01  0.28733271489E-01  0.00000000000E+00 0.  1.
       22    1    1    2    0    0 -0.56482433348E-03  0.22104917729E-02  0.60119581708E-02  0.64303142577E-02  0.00000000000E+00 0. -1.
       22    1    1    2    0    0  0.76623357333E-03 -0.24207826927E-02 -0.34743754191E-01  0.34836414253E-01  0.00000000000E+00 0.  1.
</event>
<event>
 5   0  0.3987501E+07  0.9118800E+02  0.7546771E-02  0.1180000E+00
      -11   -1    0    0    0    0  0.00000000000E+00  0.00000000000E+00  0.34996269501E-01  0.35000000000E-01  0.51099999109E-03 0. -1.
       11   -1    0    0    0    0 -0.00000000000E+00 -0.00000000000E+00 -0.34996269501E-01  0.35000000000E-01  0.51099999109E-03 0.  1.
       22    1    1    2    0    0 -0.31523848637E-01 -0.85289442799E-02 -0.92224305002E-02  0.33934483166E-01  0.00000000000E+00 0.  1.
       22    1    1    2    0    0  0.13073850962E-03 -0.49276749723E-03  0.27117370674E-02  0.27592445138E-02  0.00000000000E+00 0. -1.
       22    1    1    2    0    0  0.31393110128E-01  0.90217117771E-02  0.65106934328E-02  0.33306272320E-01  0.00000000000E+00 0. -1.
</event>
<event>
 5   0  0.3987501E+07  0.9118800E+02  0.7546771E-02  0.1180000E+00
      -11   -1    0    0    0    0  0.00000000000E+00  0.00000000000E+00  0.34996269501E-01  0.35000000000E-01  0.51099999109E-03 0.  1.
       11   -1    0    0    0    0 -0.00000000000E+00 -0.00000000000E+00 -0.34996269501E-01  0.35000000000E-01  0.51099999109E-03 0. -1.
       22    1    1    2    0    0  0.19727157416E-03 -0.17120019862E-02 -0.34788327491E-01  0.34830986155E-01  0.00000000000E+00 0. -1.
       22    1    1    2    0    0 -0.17593483778E-03  0.13682337870E-02  0.34797137756E-01  0.34824471465E-01  0.00000000000E+00 0.  1.
       22    1    1    2    0    0 -0.21336736374E-04  0.34376819922E-03 -0.88102647935E-05  0.34454238038E-03  0.00000000000E+00 0. -1.
</event>
<event>
 5   0  0.3987501E+07  0.9118800E+02  0.7546771E-02  0.1180000E+00
      -11   -1    0    0    0    0  0.00000000000E+00  0.00000000000E+00  0.34996269501E-01  0.35000000000E-01  0.51099999109E-03 0. -1.
       11   -1    0    0    0    0 -0.00000000000E+00 -0.00000000000E+00 -0.34996269501E-01  0.35000000000E-01  0.51099999109E-03 0.  1.
       22    1    1    2    0    0  0.44058820952E-04 -0.26934573862E-03  0.89362723736E-03  0.93437569851E-03  0.00000000000E+00 0.  1.
       22    1    1    2    0    0 -0.33226718644E-01 -0.68520237510E-02  0.59515790359E-02  0.34443959621E-01  0.00000000000E+00 0. -1.
       22    1    1    2    0    0  0.33182659823E-01  0.71213694896E-02 -0.68452062733E-02  0.34621664681E-01  0.00000000000E+00 0.  1.
</event>
<event>
 5   0  0.3987501E+07  0.9118800E+02  0.7546771E-02  0.1180000E+00
      -11   -1    0    0    0    0  0.00000000000E+00  0.00000000000E+00  0.34996269501E-01  0.35000000000E-01  0.51099999109E-03 0.  1.
       11   -1    0    0    0    0 -0.00000000000E+00 -0.00000000000E+00 -0.34996269501E-01  0.35000000000E-01  0.51099999109E-03 0. -1.
       22    1    1    2    0    0  0.39358888555E-02 -0.60216489952E-02  0.34165274139E-01  0.34914430178E-01  0.00000000000E+00 0.  1.
       22    1    1    2    0    0 -0.39359249544E-02  0.60354466483E-02 -0.34250002373E-01  0.34999725485E-01  0.00000000000E+00 0. -1.
       22    1    1    2    0    0  0.36098867944E-07 -0.13797653146E-04  0.84728234079E-04  0.85844336946E-04  0.00000000000E+00 0. -1.
</event>
<event>
 5   0  0.3987501E+07  0.9118800E+02  0.7546771E-02  0.1180000E+00
      -11   -1    0    0    0    0  0.00000000000E+00  0.00000000000E+00  0.34996269501E-01  0.35000000000E-01  0.51099999109E-03 0.  1.
       11   -1    0    0    0    0 -0.00000000000E+00 -0.00000000000E+00 -0.34996269501E-01  0.35000000000E-01  0.51099999109E-03 0. -1.
       22    1    1    2    0    0  0.10610665880E-08  0.96453762139E-09  0.12264646494E-08  0.18869050489E-08  0.00000000000E+00 0.  1.
       22    1    1    2    0    0  0.92647823279E-02  0.20652641909E-01 -0.26695170491E-01  0.34999999099E-01  0.00000000000E+00 0. -1.
       22    1    1    2    0    0 -0.92647833890E-02 -0.20652642873E-01  0.26695169265E-01  0.34999999014E-01  0.00000000000E+00 0.  1.
</event>
<event>
 5   0  0.3987501E+07  0.9118800E+02  0.7546771E-02  0.1180000E+00
      -11   -1    0    0    0    0  0.00000000000E+00  0.00000000000E+00  0.34996269501E-01  0.35000000000E-01  0.51099999109E-03 0. -1.
       11   -1    0    0    0    0 -0.00000000000E+00 -0.00000000000E+00 -0.34996269501E-01  0.35000000000E-01  0.51099999109E-03 0.  1.
       22    1    1    2    0    0 -0.70954879939E-04  0.18762116037E-04 -0.14201493342E-03  0.15985885430E-03  0.00000000000E+00 0. -1.
       22    1    1    2    0    0 -0.24509283741E-03 -0.53191568193E-03  0.34986021401E-01  0.34990923084E-01  0.00000000000E+00 0. -1.
       22    1    1    2    0    0  0.31604771735E-03  0.51315356590E-03 -0.34844006468E-01  0.34849218061E-01  0.00000000000E+00 0.  1.
</event>
<event>
 5   0  0.3987501E+07  0.9118800E+02  0.7546771E-02  0.1180000E+00
      -11   -1    0    0    0    0  0.00000000000E+00  0.00000000000E+00  0.34996269501E-01  0.35000000000E-01  0.51099999109E-03 0. -1.
       11   -1    0    0    0    0 -0.00000000000E+00 -0.00000000000E+00 -0.34996269501E-01  0.35000000000E-01  0.51099999109E-03 0.  1.
       22    1    1    2    0    0  0.23172976093E-02 -0.13598797441E-02  0.34890548109E-01  0.34993849295E-01  0.00000000000E+00 0. -1.
       22    1    1    2    0    0 -0.23165157993E-02  0.13612556682E-02 -0.34896605227E-01  0.34999890268E-01  0.00000000000E+00 0.  1.
       22    1    1    2    0    0 -0.78181000969E-06 -0.13759241166E-05  0.60571173473E-05  0.62604364564E-05  0.00000000000E+00 0.  1.
</event>
<event>
 5   0  0.3987501E+07  0.9118800E+02  0.7546771E-02  0.1180000E+00
      -11   -1    0    0    0    0  0.00000000000E+00  0.00000000000E+00  0.34996269501E-01  0.35000000000E-01  0.51099999109E-03 0. -1.
       11   -1    0    0    0    0 -0.00000000000E+00 -0.00000000000E+00 -0.34996269501E-01  0.35000000000E-01  0.51099999109E-03 0. -1.
       22    1    1    2    0    0 -0.16507162821E-02  0.49698064082E-02 -0.30088580812E-01  0.30540899386E-01  0.00000000000E+00 0.  1.
       22    1    1    2    0    0  0.30841550660E-03  0.24802972295E-03  0.33223394267E-01  0.33225751542E-01  0.00000000000E+00 0. -1.
       22    1    1    2    0    0  0.13423007755E-02 -0.52178361312E-02 -0.31348134551E-02  0.62333490727E-02  0.00000000000E+00 0. -1.
</event>
<event>
 5   0  0.3987501E+07  0.9118800E+02  0.7546771E-02  0.1180000E+00
      -11   -1    0    0    0    0  0.00000000000E+00  0.00000000000E+00  0.34996269501E-01  0.35000000000E-01  0.51099999109E-03 0. -1.
       11   -1    0    0    0    0 -0.00000000000E+00 -0.00000000000E+00 -0.34996269501E-01  0.35000000000E-01  0.51099999109E-03 0.  1.
       22    1    1    2    0    0 -0.18616547746E-03  0.16809108123E-03  0.13334728174E-03  0.28406635516E-03  0.00000000000E+00 0. -1.
       22    1    1    2    0    0 -0.75973749982E-02 -0.15233022152E-02 -0.34034973165E-01  0.34905872785E-01  0.00000000000E+00 0.  1.
       22    1    1    2    0    0  0.77835404757E-02  0.13552111340E-02  0.33901625883E-01  0.34810060860E-01  0.00000000000E+00 0. -1.
</event>
<event>
 5   0  0.3987501E+07  0.9118800E+02  0.7546771E-02  0.1180000E+00
      -11   -1    0    0    0    0  0.00000000000E+00  0.00000000000E+00  0.34996269501E-01  0.35000000000E-01  0.51099999109E-03 0. -1.
       11   -1    0    0    0    0 -0.00000000000E+00 -0.00000000000E+00 -0.34996269501E-01  0.35000000000E-01  0.51099999109E-03 0.  1.
       22    1    1    2    0    0 -0.46243373141E-02 -0.64742107525E-03 -0.34684634038E-01  0.34997535456E-01  0.00000000000E+00 0.  1.
       22    1    1    2    0    0  0.46369010142E-02  0.64011674267E-03  0.34652231511E-01  0.34966952243E-01  0.00000000000E+00 0. -1.
       22    1    1    2    0    0 -0.12563700080E-04  0.73043325824E-05  0.32402526204E-04  0.35512301229E-04  0.00000000000E+00 0.  1.
</event>
<event>
 5   0  0.3987501E+07  0.9118800E+02  0.7546771E-02  0.1180000E+00
      -11   -1    0    0    0    0  0.00000000000E+00  0.00000000000E+00  0.34996269501E-01  0.35000000000E-01  0.51099999109E-03 0. -1.
       11   -1    0    0    0    0 -0.00000000000E+00 -0.00000000000E+00 -0.34996269501E-01  0.35000000000E-01  0.51099999109E-03 0.  1.
       22    1    1    2    0    0 -0.22994131602E-03  0.19622765473E-02  0.34346084331E-01  0.34402861961E-01  0.00000000000E+00 0. -1.
       22    1    1    2    0    0  0.24110000243E-03 -0.19825358916E-02 -0.34942874020E-01  0.34999900322E-01  0.00000000000E+00 0.  1.
       22    1    1    2    0    0 -0.11158686414E-04  0.20259344380E-04  0.59678968884E-03  0.59723771651E-03  0.00000000000E+00 0.  1.
</event>
<event>
 5   0  0.3987501E+07  0.9118800E+02  0.7546771E-02  0.1180000E+00
      -11   -1    0    0    0    0  0.00000000000E+00  0.00000000000E+00  0.34996269501E-01  0.35000000000E-01  0.51099999109E-03 0.  1.
       11   -1    0    0    0    0 -0.00000000000E+00 -0.00000000000E+00 -0.34996269501E-01  0.35000000000E-01  0.51099999109E-03 0. -1.
       22    1    1    2    0    0  0.17393902868E-02 -0.39190090921E-02  0.33734855467E-01  0.34006243313E-01  0.00000000000E+00 0.  1.
       22    1    1    2    0    0  0.50509473952E-03 -0.44259508731E-03 -0.29516528049E-01  0.29524167036E-01  0.00000000000E+00 0. -1.
       22    1    1    2    0    0 -0.22444850263E-02  0.43616041794E-02 -0.42183274187E-02  0.64695896518E-02  0.00000000000E+00 0. -1.
</event>
<event>
 5   0  0.3987501E+07  0.9118800E+02  0.7546771E-02  0.1180000E+00
      -11   -1    0    0    0    0  0.00000000000E+00  0.00000000000E+00  0.34996269501E-01  0.35000000000E-01  0.51099999109E-03 0. -1.
       11   -1    0    0    0    0 -0.00000000000E+00 -0.00000000000E+00 -0.34996269501E-01  0.35000000000E-01  0.51099999109E-03 0.  1.
       22    1    1    2    0    0 -0.16907066860E-01 -0.13129167170E-01 -0.27622017080E-01  0.34945668801E-01  0.00000000000E+00 0.  1.
       22    1    1    2    0    0  0.23846693109E-04 -0.45757150431E-04 -0.44261026399E-04  0.67981027101E-04  0.00000000000E+00 0. -1.
       22    1    1    2    0    0  0.16883220167E-01  0.13174924321E-01  0.27666278106E-01  0.34986350172E-01  0.00000000000E+00 0. -1.
</event>
<event>
 5   0  0.3987501E+07  0.9118800E+02  0.7546771E-02  0.1180000E+00
      -11   -1    0    0    0    0  0.00000000000E+00  0.00000000000E+00  0.34996269501E-01  0.35000000000E-01  0.51099999109E-03 0. -1.
       11   -1    0    0    0    0 -0.00000000000E+00 -0.00000000000E+00 -0.34996269501E-01  0.35000000000E-01  0.51099999109E-03 0.  1.
       22    1    1    2    0    0 -0.20636682239E-03  0.53809613075E-02  0.33346885513E-01  0.33778870693E-01  0.00000000000E+00 0. -1.
       22    1    1    2    0    0  0.10925888513E-02 -0.52404607709E-02 -0.34413457084E-01  0.34827319851E-01  0.00000000000E+00 0.  1.
       22    1    1    2    0    0 -0.88622202887E-03 -0.14050053654E-03  0.10665715714E-02  0.13938094569E-02  0.00000000000E+00 0. -1.
</event>
<event>
 5   0  0.3987501E+07  0.9118800E+02  0.7546771E-02  0.1180000E+00
      -11   -1    0    0    0    0  0.00000000000E+00  0.00000000000E+00  0.34996269501E-01  0.35000000000E-01  0.51099999109E-03 0. -1.
       11   -1    0    0    0    0 -0.00000000000E+00 -0.00000000000E+00 -0.34996269501E-01  0.35000000000E-01  0.51099999109E-03 0.  1.
       22    1    1    2    0    0  0.84563660240E-04 -0.70418638708E-03 -0.13203708618E-01  0.13222743692E-01  0.00000000000E+00 0. -1.
       22    1    1    2    0    0  0.23606771467E-01  0.66052943613E-02  0.19772504222E-01  0.31493832665E-01  0.00000000000E+00 0. -1.
       22    1    1    2    0    0 -0.23691335127E-01 -0.59011079743E-02 -0.65687956039E-02  0.25283423643E-01  0.00000000000E+00 0.  1.
</event>
