<event>
 5   1  0.3604641E-05  0.7966441E+02  0.7546771E-02  0.1204552E+00
      -11   -1    0    0    0    0  0.00000000000E+00  0.00000000000E+00  0.65000000000E+04  0.65000000000E+04  0.00000000000E+00 0. -1.
       11   -1    0    0    0    0 -0.00000000000E+00 -0.00000000000E+00 -0.65000000000E+04  0.65000000000E+04  0.00000000000E+00 0.  1.
       22    1    1    2    0    0 -0.14175535657E+03 -0.16888204278E+03  0.20860709177E+03  0.30353359653E+03  0.00000000000E+00 0. -1.
       22    1    1    2    0    0  0.23987211041E+04  0.71411925126E+03 -0.59761688129E+04  0.64790757767E+04  0.00000000000E+00 0.  1.
       22    1    1    2    0    0 -0.22569657476E+04 -0.54523720848E+03  0.57675617211E+04  0.62173906268E+04  0.00000000000E+00 0. -1.
</event>
<event>
 5   1  0.3604641E-05  0.8039976E+02  0.7546771E-02  0.1202849E+00
      -11   -1    0    0    0    0  0.00000000000E+00  0.00000000000E+00  0.65000000000E+04  0.65000000000E+04  0.00000000000E+00 0. -1.
       11   -1    0    0    0    0 -0.00000000000E+00 -0.00000000000E+00 -0.65000000000E+04  0.65000000000E+04  0.00000000000E+00 0.  1.
       22    1    1    2    0    0  0.11187402100E+04 -0.61043805683E+04  0.17372781296E+04  0.64446238897E+04  0.00000000000E+00 0. -1.
       22    1    1    2    0    0 -0.11010029166E+04  0.61304334952E+04 -0.18015210150E+04  0.64838183371E+04  0.00000000000E+00 0.  1.
       22    1    1    2    0    0 -0.17737293448E+02 -0.26052926895E+02  0.64242885390E+02  0.71557773176E+02  0.00000000000E+00 0.  1.
</event>
<event>
 5   1  0.3604641E-05  0.7867144E+02  0.7546771E-02  0.1206885E+00
      -11   -1    0    0    0    0  0.00000000000E+00  0.00000000000E+00  0.65000000000E+04  0.65000000000E+04  0.00000000000E+00 0. -1.
       11   -1    0    0    0    0 -0.00000000000E+00 -0.00000000000E+00 -0.65000000000E+04  0.65000000000E+04  0.00000000000E+00 0.  1.
       22    1    1    2    0    0 -0.39271293147E+04  0.46115137065E+04  0.20765710681E+04  0.64031672413E+04  0.00000000000E+00 0. -1.
       22    1    1    2    0    0  0.38515049287E+04 -0.43174842700E+04 -0.15512413808E+04  0.59900843449E+04  0.00000000000E+00 0.  1.
       22    1    1    2    0    0  0.75624385996E+02 -0.29402943645E+03 -0.52532968726E+03  0.60674841374E+03  0.00000000000E+00 0.  1.
</event>
<event>
 5   1  0.3604641E-05  0.8054188E+02  0.7546771E-02  0.1202523E+00
      -11   -1    0    0    0    0  0.00000000000E+00  0.00000000000E+00  0.65000000000E+04  0.65000000000E+04  0.00000000000E+00 0.  1.
       11   -1    0    0    0    0 -0.00000000000E+00 -0.00000000000E+00 -0.65000000000E+04  0.65000000000E+04  0.00000000000E+00 0. -1.
       22    1    1    2    0    0  0.12301850576E+02 -0.14935210897E+02  0.17342880899E+02  0.25984063770E+02  0.00000000000E+00 0. -1.
       22    1    1    2    0    0 -0.41104810133E+03 -0.55476796881E+04  0.33166270030E+04  0.64765519484E+04  0.00000000000E+00 0. -1.
       22    1    1    2    0    0  0.39874625076E+03  0.55626148990E+04 -0.33339698839E+04  0.64974639879E+04  0.00000000000E+00 0.  1.
</event>
<event>
 5   1  0.3604641E-05  0.7899475E+02  0.7546771E-02  0.1206121E+00
      -11   -1    0    0    0    0  0.00000000000E+00  0.00000000000E+00  0.65000000000E+04  0.65000000000E+04  0.00000000000E+00 0. -1.
       11   -1    0    0    0    0 -0.00000000000E+00 -0.00000000000E+00 -0.65000000000E+04  0.65000000000E+04  0.00000000000E+00 0.  1.
       22    1    1    2    0    0 -0.87743020189E+02  0.15336747398E+03 -0.47763769165E+03  0.50927221027E+03  0.00000000000E+00 0.  1.
       22    1    1    2    0    0  0.58014311627E+02  0.12073968526E+04  0.63493171253E+04  0.64633583204E+04  0.00000000000E+00 0. -1.
       22    1    1    2    0    0  0.29728708562E+02 -0.13607643266E+04 -0.58716794336E+04  0.60273694694E+04  0.00000000000E+00 0.  1.
</event>
<event>
 5   1  0.3604641E-05  0.6839349E+02  0.7546771E-02  0.1233563E+00
      -11   -1    0    0    0    0  0.00000000000E+00  0.00000000000E+00  0.65000000000E+04  0.65000000000E+04  0.00000000000E+00 0. -1.
       11   -1    0    0    0    0 -0.00000000000E+00 -0.00000000000E+00 -0.65000000000E+04  0.65000000000E+04  0.00000000000E+00 0.  1.
       22    1    1    2    0    0  0.28711559210E+04 -0.74979776501E+03 -0.10073151646E+04  0.31337544339E+04  0.00000000000E+00 0.  1.
       22    1    1    2    0    0  0.22336591786E+04  0.20117170593E+04 -0.21835364275E+04  0.37153829120E+04  0.00000000000E+00 0. -1.
       22    1    1    2    0    0 -0.51048150996E+04 -0.12619192943E+04  0.31908515921E+04  0.61508626541E+04  0.00000000000E+00 0. -1.
</event>
<event>
 5   1  0.3604641E-05  0.8036242E+02  0.7546771E-02  0.1202935E+00
      -11   -1    0    0    0    0  0.00000000000E+00  0.00000000000E+00  0.65000000000E+04  0.65000000000E+04  0.00000000000E+00 0. -1.
       11   -1    0    0    0    0 -0.00000000000E+00 -0.00000000000E+00 -0.65000000000E+04  0.65000000000E+04  0.00000000000E+00 0.  1.
       22    1    1    2    0    0  0.36366217256E+02 -0.34111683766E+04 -0.55120972162E+04  0.64823304387E+04  0.00000000000E+00 0.  1.
       22    1    1    2    0    0 -0.36904765691E+02 -0.23246938126E+02  0.71195312034E+02  0.83493438776E+02  0.00000000000E+00 0. -1.
       22    1    1    2    0    0  0.53854843452E+00  0.34344153147E+04  0.54409019042E+04  0.64341761225E+04  0.00000000000E+00 0. -1.
</event>
<event>
 5   1  0.3604641E-05  0.7056311E+02  0.7546771E-02  0.1227508E+00
      -11   -1    0    0    0    0  0.00000000000E+00  0.00000000000E+00  0.65000000000E+04  0.65000000000E+04  0.00000000000E+00 0.  1.
       11   -1    0    0    0    0 -0.00000000000E+00 -0.00000000000E+00 -0.65000000000E+04  0.65000000000E+04  0.00000000000E+00 0. -1.
       22    1    1    2    0    0 -0.18893566266E+04  0.44888497379E+03 -0.18554344832E+04  0.26858524352E+04  0.00000000000E+00 0. -1.
       22    1    1    2    0    0  0.28265700955E+04 -0.77544006799E+03  0.56645141710E+04  0.63778935862E+04  0.00000000000E+00 0.  1.
       22    1    1    2    0    0 -0.93721346885E+03  0.32655509420E+03 -0.38090796878E+04  0.39362539786E+04  0.00000000000E+00 0. -1.
</event>
<event>
 5   1  0.3604641E-05  0.7522806E+02  0.7546771E-02  0.1215284E+00
      -11   -1    0    0    0    0  0.00000000000E+00  0.00000000000E+00  0.65000000000E+04  0.65000000000E+04  0.00000000000E+00 0. -1.
       11   -1    0    0    0    0 -0.00000000000E+00 -0.00000000000E+00 -0.65000000000E+04  0.65000000000E+04  0.00000000000E+00 0.  1.
       22    1    1    2    0    0  0.69632920828E+02 -0.28476670794E+03  0.15451694341E+04  0.15727330994E+04  0.00000000000E+00 0. -1.
       22    1    1    2    0    0 -0.14421232331E+04  0.47609456451E+04 -0.37718654341E+04  0.62428592574E+04  0.00000000000E+00 0.  1.
       22    1    1    2    0    0  0.13724903122E+04 -0.44761789371E+04  0.22266960000E+04  0.51844076432E+04  0.00000000000E+00 0. -1.
</event>
<event>
 5   1  0.3604641E-05  0.8038031E+02  0.7546771E-02  0.1202894E+00
      -11   -1    0    0    0    0  0.00000000000E+00  0.00000000000E+00  0.65000000000E+04  0.65000000000E+04  0.00000000000E+00 0.  1.
       11   -1    0    0    0    0 -0.00000000000E+00 -0.00000000000E+00 -0.65000000000E+04  0.65000000000E+04  0.00000000000E+00 0. -1.
       22    1    1    2    0    0 -0.18500907311E+02 -0.88697191843E+01  0.75021058163E+02  0.77776054526E+02  0.00000000000E+00 0.  1.
       22    1    1    2    0    0  0.10965003770E+04  0.77652750483E+03  0.62844681547E+04  0.64264957815E+04  0.00000000000E+00 0.  1.
       22    1    1    2    0    0 -0.10779994697E+04 -0.76765778565E+03 -0.63594892128E+04  0.64957281640E+04  0.00000000000E+00 0. -1.
</event>
<event>
 5   1  0.3604641E-05  0.8054605E+02  0.7546771E-02  0.1202513E+00
      -11   -1    0    0    0    0  0.00000000000E+00  0.00000000000E+00  0.65000000000E+04  0.65000000000E+04  0.00000000000E+00 0. -1.
       11   -1    0    0    0    0 -0.00000000000E+00 -0.00000000000E+00 -0.65000000000E+04  0.65000000000E+04  0.00000000000E+00 0.  1.
       22    1    1    2    0    0  0.16051951992E+02 -0.23099355763E+01  0.18556716811E+02  0.24644526855E+02  0.00000000000E+00 0. -1.
       22    1    1    2    0    0  0.88526047536E+03 -0.12362774835E+04 -0.63148845938E+04  0.64953703172E+04  0.00000000000E+00 0.  1.
       22    1    1    2    0    0 -0.90131242735E+03  0.12385874190E+04  0.62963278770E+04  0.64799851559E+04  0.00000000000E+00 0. -1.
</event>
<event>
 5   1  0.3604641E-05  0.7721886E+02  0.7546771E-02  0.1210368E+00
      -11   -1    0    0    0    0  0.00000000000E+00  0.00000000000E+00  0.65000000000E+04  0.65000000000E+04  0.00000000000E+00 0. -1.
       11   -1    0    0    0    0 -0.00000000000E+00 -0.00000000000E+00 -0.65000000000E+04  0.65000000000E+04  0.00000000000E+00 0.  1.
       22    1    1    2    0    0 -0.20148587218E+04  0.16487319434E+04  0.57582360299E+04  0.63194346952E+04  0.00000000000E+00 0. -1.
       22    1    1    2    0    0  0.11507649922E+04 -0.12210185927E+04 -0.53956200594E+04  0.56504745195E+04  0.00000000000E+00 0.  1.
       22    1    1    2    0    0  0.86409372957E+03 -0.42771335066E+03 -0.36261597059E+03  0.10300907853E+04  0.00000000000E+00 0.  1.
</event>
<event>
 5   1  0.4629558E-05  0.8050539E+02  0.7546771E-02  0.1202606E+00
      -11   -1    0    0    0    0  0.00000000000E+00  0.00000000000E+00  0.65000000000E+04  0.65000000000E+04  0.00000000000E+00 0.  1.
       11   -1    0    0    0    0 -0.00000000000E+00 -0.00000000000E+00 -0.65000000000E+04  0.65000000000E+04  0.00000000000E+00 0. -1.
       22    1    1    2    0    0 -0.27565314920E+02 -0.31628541386E+01 -0.25535047263E+02  0.37707941758E+02  0.00000000000E+00 0. -1.
       22    1    1    2    0    0  0.19537987324E+03  0.16552668518E+04 -0.62512071530E+04  0.64695960086E+04  0.00000000000E+00 0. -1.
       22    1    1    2    0    0 -0.16781455832E+03 -0.16521039976E+04  0.62767422002E+04  0.64926960496E+04  0.00000000000E+00 0.  1.
</event>
<event>
 5   1  0.3604641E-05  0.7871795E+02  0.7546771E-02  0.1206775E+00
      -11   -1    0    0    0    0  0.00000000000E+00  0.00000000000E+00  0.65000000000E+04  0.65000000000E+04  0.00000000000E+00 0.  1.
       11   -1    0    0    0    0 -0.00000000000E+00 -0.00000000000E+00 -0.65000000000E+04  0.65000000000E+04  0.00000000000E+00 0. -1.
       22    1    1    2    0    0 -0.25800966474E+04 -0.18731120114E+04  0.52179483894E+04  0.61149352173E+04  0.00000000000E+00 0.  1.
       22    1    1    2    0    0  0.24800094876E+04  0.24571537166E+04 -0.52349361374E+04  0.62922657134E+04  0.00000000000E+00 0. -1.
       22    1    1    2    0    0  0.10008715987E+03 -0.58404170514E+03  0.16987748062E+02  0.59279906925E+03  0.00000000000E+00 0.  1.
</event>
<event>
 5   1  0.3604641E-05  0.7953189E+02  0.7546771E-02  0.1204861E+00
      -11   -1    0    0    0    0  0.00000000000E+00  0.00000000000E+00  0.65000000000E+04  0.65000000000E+04  0.00000000000E+00 0. -1.
       11   -1    0    0    0    0 -0.00000000000E+00 -0.00000000000E+00 -0.65000000000E+04  0.65000000000E+04  0.00000000000E+00 0.  1.
       22    1    1    2    0    0 -0.10208930165E+04 -0.10970502839E+04  0.62843841015E+04  0.64605901752E+04  0.00000000000E+00 0. -1.
       22    1    1    2    0    0  0.11863914634E+04  0.10047723408E+04 -0.59964819053E+04  0.61947467585E+04  0.00000000000E+00 0.  1.
       22    1    1    2    0    0 -0.16549844696E+03  0.92277943138E+02 -0.28790219614E+03  0.34466306631E+03  0.00000000000E+00 0. -1.
</event>
<event>
 5   1  0.3604641E-05  0.6886522E+02  0.7546771E-02  0.1232225E+00
      -11   -1    0    0    0    0  0.00000000000E+00  0.00000000000E+00  0.65000000000E+04  0.65000000000E+04  0.00000000000E+00 0.  1.
       11   -1    0    0    0    0 -0.00000000000E+00 -0.00000000000E+00 -0.65000000000E+04  0.65000000000E+04  0.00000000000E+00 0. -1.
       22    1    1    2    0    0 -0.24454149687E+04 -0.17372375395E+04  0.49300400824E+03  0.30399180235E+04  0.00000000000E+00 0. -1.
       22    1    1    2    0    0 -0.59176889231E+03  0.99303992240E+03  0.41802413119E+04  0.43371345535E+04  0.00000000000E+00 0.  1.
       22    1    1    2    0    0  0.30371838610E+04  0.74419761705E+03 -0.46732453202E+04  0.56229474230E+04  0.00000000000E+00 0. -1.
</event>
<event>
 5   1  0.3604641E-05  0.8037545E+02  0.7546771E-02  0.1202905E+00
      -11   -1    0    0    0    0  0.00000000000E+00  0.00000000000E+00  0.65000000000E+04  0.65000000000E+04  0.00000000000E+00 0.  1.
       11   -1    0    0    0    0 -0.00000000000E+00 -0.00000000000E+00 -0.65000000000E+04  0.65000000000E+04  0.00000000000E+00 0. -1.
       22    1    1    2    0    0 -0.11153369245E+04  0.30665754049E+04  0.55404835031E+04  0.64299936716E+04  0.00000000000E+00 0.  1.
       22    1    1    2    0    0  0.24937947949E+02  0.63909970250E+02  0.39836071720E+02  0.79330310445E+02  0.00000000000E+00 0. -1.
       22    1    1    2    0    0  0.10903989766E+04 -0.31304853752E+04 -0.55803195748E+04  0.64906760179E+04  0.00000000000E+00 0. -1.
</event>
<event>
 5   1  0.3604641E-05  0.7967259E+02  0.7546771E-02  0.1204533E+00
      -11   -1    0    0    0    0  0.00000000000E+00  0.00000000000E+00  0.65000000000E+04  0.65000000000E+04  0.00000000000E+00 0. -1.
       11   -1    0    0    0    0 -0.00000000000E+00 -0.00000000000E+00 -0.65000000000E+04  0.65000000000E+04  0.00000000000E+00 0.  1.
       22    1    1    2    0    0  0.22244894290E+04  0.59221577127E+03  0.57701835981E+04  0.62124143049E+04  0.00000000000E+00 0. -1.
       22    1    1    2    0    0 -0.22059725554E+04 -0.64707915722E+03 -0.60655507185E+04  0.64865963240E+04  0.00000000000E+00 0.  1.
       22    1    1    2    0    0 -0.18516873523E+02  0.54863385954E+02  0.29536712039E+03  0.30098937113E+03  0.00000000000E+00 0. -1.
</event>
<event>
 5   1  0.3604641E-05  0.7937474E+02  0.7546771E-02  0.1205229E+00
      -11   -1    0    0    0    0  0.00000000000E+00  0.00000000000E+00  0.65000000000E+04  0.65000000000E+04  0.00000000000E+00 0.  1.
       11   -1    0    0    0    0 -0.00000000000E+00 -0.00000000000E+00 -0.65000000000E+04  0.65000000000E+04  0.00000000000E+00 0. -1.
       22    1    1    2    0    0 -0.11666296594E+04  0.21380338570E+03  0.63882636981E+04  0.64974340878E+04  0.00000000000E+00 0.  1.
       22    1    1    2    0    0  0.10820650248E+04 -0.26059689804E+03 -0.60071588851E+04  0.61093971333E+04  0.00000000000E+00 0. -1.
       22    1    1    2    0    0  0.84564634565E+02  0.46793512339E+02 -0.38110481299E+03  0.39316877890E+03  0.00000000000E+00 0.  1.
</event>
<event>
 5   1  0.3604641E-05  0.7175968E+02  0.7546771E-02  0.1224273E+00
      -11   -1    0    0    0    0  0.00000000000E+00  0.00000000000E+00  0.65000000000E+04  0.65000000000E+04  0.00000000000E+00 0. -1.
       11   -1    0    0    0    0 -0.00000000000E+00 -0.00000000000E+00 -0.65000000000E+04  0.65000000000E+04  0.00000000000E+00 0.  1.
       22    1    1    2    0    0 -0.21665790308E+03 -0.29961427292E+04  0.31441436221E+04  0.43484998582E+04  0.00000000000E+00 0. -1.
       22    1    1    2    0    0  0.38840823255E+03  0.12945230980E+03  0.23856076969E+04  0.24204840299E+04  0.00000000000E+00 0. -1.
       22    1    1    2    0    0 -0.17175032946E+03  0.28666904194E+04 -0.55297513190E+04  0.62310161118E+04  0.00000000000E+00 0.  1.
</event>
<event>
 5   1  0.3604641E-05  0.6829208E+02  0.7546771E-02  0.1233852E+00
      -11   -1    0    0    0    0  0.00000000000E+00  0.00000000000E+00  0.65000000000E+04  0.65000000000E+04  0.00000000000E+00 0.  1.
       11   -1    0    0    0    0 -0.00000000000E+00 -0.00000000000E+00 -0.65000000000E+04  0.65000000000E+04  0.00000000000E+00 0. -1.
       22    1    1    2    0    0  0.14617751801E+04 -0.19085664339E+04  0.20411415832E+04  0.31536758667E+04  0.00000000000E+00 0.  1.
       22    1    1    2    0    0  0.14131192243E+03 -0.18533975179E+04  0.28925121389E+04  0.34382666989E+04  0.00000000000E+00 0.  1.
       22    1    1    2    0    0 -0.16030871026E+04  0.37619639518E+04 -0.49336537221E+04  0.64080574344E+04  0.00000000000E+00 0. -1.
</event>
<event>
 5   1  0.3604641E-05  0.8039343E+02  0.7546771E-02  0.1202864E+00
      -11   -1    0    0    0    0  0.00000000000E+00  0.00000000000E+00  0.65000000000E+04  0.65000000000E+04  0.00000000000E+00 0.  1.
       11   -1    0    0    0    0 -0.00000000000E+00 -0.00000000000E+00 -0.65000000000E+04  0.65000000000E+04  0.00000000000E+00 0. -1.
       22    1    1    2    0    0 -0.55365682517E+02 -0.10415411496E+02  0.47334590959E+02  0.73582627694E+02  0.00000000000E+00 0.  1.
       22    1    1    2    0    0 -0.15052571446E+04 -0.16447994770E+04  0.60344007929E+04  0.64331296676E+04  0.00000000000E+00 0.  1.
       22    1    1    2    0    0  0.15606228272E+04  0.16552148885E+04 -0.60817353839E+04  0.64932877047E+04  0.00000000000E+00 0. -1.
</event>
<event>
 5   1  0.3604641E-05  0.7984056E+02  0.7546771E-02  0.1204142E+00
      -11   -1    0    0    0    0  0.00000000000E+00  0.00000000000E+00  0.65000000000E+04  0.65000000000E+04  0.00000000000E+00 0. -1.
       11   -1    0    0    0    0 -0.00000000000E+00 -0.00000000000E+00 -0.65000000000E+04  0.65000000000E+04  0.00000000000E+00 0.  1.
       22    1    1    2    0    0 -0.16817676894E+04  0.49196338470E+04  0.35911055781E+04  0.63187956940E+04  0.00000000000E+00 0. -1.
       22    1    1    2    0    0  0.17840994172E+04 -0.48654042599E+04 -0.38110228137E+04  0.64326560790E+04  0.00000000000E+00 0.  1.
       22    1    1    2    0    0 -0.10233172784E+03 -0.54229587052E+02  0.21991723562E+03  0.24854822703E+03  0.00000000000E+00 0.  1.
</event>
<event>
 5   1  0.3604641E-05  0.8050839E+02  0.7546771E-02  0.1202599E+00
      -11   -1    0    0    0    0  0.00000000000E+00  0.00000000000E+00  0.65000000000E+04  0.65000000000E+04  0.00000000000E+00 0.  1.
       11   -1    0    0    0    0 -0.00000000000E+00 -0.00000000000E+00 -0.65000000000E+04  0.65000000000E+04  0.00000000000E+00 0. -1.
       22    1    1    2    0    0 -0.35567348275E+02  0.66019776672E+01 -0.64547139248E+01  0.36746233879E+02  0.00000000000E+00 0. -1.
       22    1    1    2    0    0  0.67341085360E+03  0.15910870622E+04  0.62513667614E+04  0.64857248325E+04  0.00000000000E+00 0.  1.
       22    1    1    2    0    0 -0.63784350532E+03 -0.15976890399E+04 -0.62449120475E+04  0.64775289336E+04  0.00000000000E+00 0. -1.
</event>
<event>
 5   1  0.3604641E-05  0.7991931E+02  0.7546771E-02  0.1203960E+00
      -11   -1    0    0    0    0  0.00000000000E+00  0.00000000000E+00  0.65000000000E+04  0.65000000000E+04  0.00000000000E+00 0.  1.
       11   -1    0    0    0    0 -0.00000000000E+00 -0.00000000000E+00 -0.65000000000E+04  0.65000000000E+04  0.00000000000E+00 0. -1.
       22    1    1    2    0    0 -0.30300662152E+02 -0.58554057883E+02  0.21391719229E+03  0.22384653891E+03  0.00000000000E+00 0.  1.
       22    1    1    2    0    0  0.18881376507E+04 -0.57658026008E+03 -0.61840095160E+04  0.64914930700E+04  0.00000000000E+00 0. -1.
       22    1    1    2    0    0 -0.18578369886E+04  0.63513431796E+03  0.59700923237E+04  0.62846603911E+04  0.00000000000E+00 0.  1.
</event>
<event>
 5   1  0.3604641E-05  0.8004869E+02  0.7546771E-02  0.1203660E+00
      -11   -1    0    0    0    0  0.00000000000E+00  0.00000000000E+00  0.65000000000E+04  0.65000000000E+04  0.00000000000E+00 0. -1.
       11   -1    0    0    0    0 -0.00000000000E+00 -0.00000000000E+00 -0.65000000000E+04  0.65000000000E+04  0.00000000000E+00 0.  1.
       22    1    1    2    0    0 -0.16675727254E+04 -0.64868871266E+03 -0.60902518660E+04  0.63476581218E+04  0.00000000000E+00 0.  1.
       22    1    1    2    0    0 -0.36148089641E+02 -0.14949736348E+03 -0.99356171380E+02  0.18310596622E+03  0.00000000000E+00 0. -1.
       22    1    1    2    0    0  0.17037208151E+04  0.79818607614E+03  0.61896080374E+04  0.64692359119E+04  0.00000000000E+00 0. -1.
</event>
<event>
 5   1  0.3604641E-05  0.7992841E+02  0.7546771E-02  0.1203938E+00
      -11   -1    0    0    0    0  0.00000000000E+00  0.00000000000E+00  0.65000000000E+04  0.65000000000E+04  0.00000000000E+00 0.  1.
       11   -1    0    0    0    0 -0.00000000000E+00 -0.00000000000E+00 -0.65000000000E+04  0.65000000000E+04  0.00000000000E+00 0. -1.
       22    1    1    2    0    0  0.17636775317E+03  0.92922231960E+02 -0.95366542111E+02  0.22098620524E+03  0.00000000000E+00 0. -1.
       22    1    1    2    0    0 -0.18155557177E+04 -0.23139757062E+03 -0.61001621221E+04  0.63688119234E+04  0.00000000000E+00 0. -1.
       22    1    1    2    0    0  0.16391879646E+04  0.13847533866E+03  0.61955286642E+04  0.64102018714E+04  0.00000000000E+00 0.  1.
</event>
<event>
 5   1  0.3604641E-05  0.7305655E+02  0.7546771E-02  0.1220846E+00
      -11   -1    0    0    0    0  0.00000000000E+00  0.00000000000E+00  0.65000000000E+04  0.65000000000E+04  0.00000000000E+00 0.  1.
       11   -1    0    0    0    0 -0.00000000000E+00 -0.00000000000E+00 -0.65000000000E+04  0.65000000000E+04  0.00000000000E+00 0. -1.
       22    1    1    2    0    0  0.29971175675E+04 -0.45577875485E+04  0.21197257037E+04  0.58522968234E+04  0.00000000000E+00 0.  1.
       22    1    1    2    0    0 -0.26883939618E+04  0.42512793551E+04 -0.47410833618E+02  0.50302172952E+04  0.00000000000E+00 0. -1.
       22    1    1    2    0    0 -0.30872360570E+03  0.30650819332E+03 -0.20723148701E+04  0.21174858814E+04  0.00000000000E+00 0. -1.
</event>
<event>
 5   1  0.3604641E-05  0.7903854E+02  0.7546771E-02  0.1206018E+00
      -11   -1    0    0    0    0  0.00000000000E+00  0.00000000000E+00  0.65000000000E+04  0.65000000000E+04  0.00000000000E+00 0. -1.
       11   -1    0    0    0    0 -0.00000000000E+00 -0.00000000000E+00 -0.65000000000E+04  0.65000000000E+04  0.00000000000E+00 0.  1.
       22    1    1    2    0    0  0.25170695762E+04 -0.31356497111E+03 -0.55765134088E+04  0.61262928465E+04  0.00000000000E+00 0.  1.
       22    1    1    2    0    0 -0.27057904541E+03 -0.18649722216E+03 -0.37148254010E+03  0.49597732941E+03  0.00000000000E+00 0.  1.
       22    1    1    2    0    0 -0.22464905308E+04  0.50006219328E+03  0.59479959488E+04  0.63777298241E+04  0.00000000000E+00 0. -1.
</event>
<event>
 5   1  0.3604641E-05  0.7976003E+02  0.7546771E-02  0.1204330E+00
      -11   -1    0    0    0    0  0.00000000000E+00  0.00000000000E+00  0.65000000000E+04  0.65000000000E+04  0.00000000000E+00 0.  1.
       11   -1    0    0    0    0 -0.00000000000E+00 -0.00000000000E+00 -0.65000000000E+04  0.65000000000E+04  0.00000000000E+00 0. -1.
       22    1    1    2    0    0 -0.80436048943E+02  0.89205408322E+02  0.24596820520E+03  0.27372964913E+03  0.00000000000E+00 0.  1.
       22    1    1    2    0    0 -0.25046526102E+03  0.10471870378E+04 -0.63845090456E+04  0.64746651876E+04  0.00000000000E+00 0. -1.
       22    1    1    2    0    0  0.33090130996E+03 -0.11363924461E+04  0.61385408404E+04  0.62516051632E+04  0.00000000000E+00 0.  1.
</event>
<event>
 5   1  0.3604641E-05  0.7999469E+02  0.7546771E-02  0.1203785E+00
      -11   -1    0    0    0    0  0.00000000000E+00  0.00000000000E+00  0.65000000000E+04  0.65000000000E+04  0.00000000000E+00 0. -1.
       11   -1    0    0    0    0 -0.00000000000E+00 -0.00000000000E+00 -0.65000000000E+04  0.65000000000E+04  0.00000000000E+00 0.  1.
       22    1    1    2    0    0  0.10947536787E+02  0.42234689763E+02  0.19531994177E+03  0.20013369840E+03  0.00000000000E+00 0. -1.
       22    1    1    2    0    0  0.53626639437E+04 -0.34409888017E+04 -0.75871160496E+03  0.64167134739E+04  0.00000000000E+00 0.  1.
       22    1    1    2    0    0 -0.53736114804E+04  0.33987541119E+04  0.56339166319E+03  0.63831528277E+04  0.00000000000E+00 0. -1.
</event>
<event>
 5   1  0.3604641E-05  0.7939433E+02  0.7546771E-02  0.1205183E+00
      -11   -1    0    0    0    0  0.00000000000E+00  0.00000000000E+00  0.65000000000E+04  0.65000000000E+04  0.00000000000E+00 0. -1.
       11   -1    0    0    0    0 -0.00000000000E+00 -0.00000000000E+00 -0.65000000000E+04  0.65000000000E+04  0.00000000000E+00 0.  1.
       22    1    1    2    0    0 -0.19026455222E+04  0.37295994676E+03 -0.60951582805E+04  0.63961014352E+04  0.00000000000E+00 0.  1.
       22    1    1    2    0    0 -0.13544453331E+03  0.25703372499E+03  0.25585903184E+03  0.38713744531E+03  0.00000000000E+00 0. -1.
       22    1    1    2    0    0  0.20380900555E+04 -0.62999367175E+03  0.58392992487E+04  0.62167611195E+04  0.00000000000E+00 0. -1.
</event>
<event>
 5   1  0.3604641E-05  0.8035781E+02  0.7546771E-02  0.1202946E+00
      -11   -1    0    0    0    0  0.00000000000E+00  0.00000000000E+00  0.65000000000E+04  0.65000000000E+04  0.00000000000E+00 0. -1.
       11   -1    0    0    0    0 -0.00000000000E+00 -0.00000000000E+00 -0.65000000000E+04  0.65000000000E+04  0.00000000000E+00 0.  1.
       22    1    1    2    0    0  0.63856041159E+04  0.61399890465E+03  0.92093346382E+03  0.64808219405E+04  0.00000000000E+00 0.  1.
       22    1    1    2    0    0 -0.63479736793E+04 -0.54077136916E+03 -0.89993819801E+03  0.64342126377E+04  0.00000000000E+00 0. -1.
       22    1    1    2    0    0 -0.37630436535E+02 -0.73227535492E+02 -0.20995265813E+02  0.84965421758E+02  0.00000000000E+00 0.  1.
</event>
<event>
 5   1  0.3604641E-05  0.7785084E+02  0.7546771E-02  0.1208842E+00
      -11   -1    0    0    0    0  0.00000000000E+00  0.00000000000E+00  0.65000000000E+04  0.65000000000E+04  0.00000000000E+00 0. -1.
       11   -1    0    0    0    0 -0.00000000000E+00 -0.00000000000E+00 -0.65000000000E+04  0.65000000000E+04  0.00000000000E+00 0.  1.
       22    1    1    2    0    0  0.16371641617E+02  0.15884521208E+04 -0.54269315518E+04  0.56546471365E+04  0.00000000000E+00 0.  1.
       22    1    1    2    0    0  0.20388119986E+02 -0.19293908806E+04  0.62033923953E+04  0.64965407762E+04  0.00000000000E+00 0. -1.
       22    1    1    2    0    0 -0.36759761603E+02  0.34093875983E+03 -0.77646084358E+03  0.84881208736E+03  0.00000000000E+00 0. -1.
</event>
<event>
 5   1  0.3604641E-05  0.7534821E+02  0.7546771E-02  0.1214982E+00
      -11   -1    0    0    0    0  0.00000000000E+00  0.00000000000E+00  0.65000000000E+04  0.65000000000E+04  0.00000000000E+00 0.  1.
       11   -1    0    0    0    0 -0.00000000000E+00 -0.00000000000E+00 -0.65000000000E+04  0.65000000000E+04  0.00000000000E+00 0. -1.
       22    1    1    2    0    0  0.33971639484E+03 -0.10864698844E+03  0.14993412764E+04  0.15411799571E+04  0.00000000000E+00 0.  1.
       22    1    1    2    0    0  0.31304543634E+04  0.44519548651E+04  0.68581867234E+03  0.54854347042E+04  0.00000000000E+00 0. -1.
       22    1    1    2    0    0 -0.34701707583E+04 -0.43433078767E+04 -0.21851599487E+04  0.59733853387E+04  0.00000000000E+00 0.  1.
</event>
<event>
 5   1  0.3604641E-05  0.8056888E+02  0.7546771E-02  0.1202461E+00
      -11   -1    0    0    0    0  0.00000000000E+00  0.00000000000E+00  0.65000000000E+04  0.65000000000E+04  0.00000000000E+00 0.  1.
       11   -1    0    0    0    0 -0.00000000000E+00 -0.00000000000E+00 -0.65000000000E+04  0.65000000000E+04  0.00000000000E+00 0. -1.
       22    1    1    2    0    0 -0.29506973653E+04  0.33503622614E+03  0.57670875935E+04  0.64867683422E+04  0.00000000000E+00 0.  1.
       22    1    1    2    0    0 -0.61231460568E+01 -0.14080273452E+02  0.79726189092E+01  0.17300568499E+02  0.00000000000E+00 0. -1.
       22    1    1    2    0    0  0.29568205114E+04 -0.32095595269E+03 -0.57750602124E+04  0.64959310893E+04  0.00000000000E+00 0. -1.
</event>
<event>
 5   1  0.3604641E-05  0.7348075E+02  0.7546771E-02  0.1219742E+00
      -11   -1    0    0    0    0  0.00000000000E+00  0.00000000000E+00  0.65000000000E+04  0.65000000000E+04  0.00000000000E+00 0. -1.
       11   -1    0    0    0    0 -0.00000000000E+00 -0.00000000000E+00 -0.65000000000E+04  0.65000000000E+04  0.00000000000E+00 0.  1.
       22    1    1    2    0    0  0.24659229063E+04  0.29318054575E+04  0.32060998553E+04  0.49955315336E+04  0.00000000000E+00 0. -1.
       22    1    1    2    0    0 -0.13074485124E+04  0.98847648827E+03  0.11717263818E+04  0.20148077065E+04  0.00000000000E+00 0.  1.
       22    1    1    2    0    0 -0.11584743939E+04 -0.39202819458E+04 -0.43778262371E+04  0.59896607599E+04  0.00000000000E+00 0.  1.
</event>
<event>
 5   1  0.3604641E-05  0.8012879E+02  0.7546771E-02  0.1203474E+00
      -11   -1    0    0    0    0  0.00000000000E+00  0.00000000000E+00  0.65000000000E+04  0.65000000000E+04  0.00000000000E+00 0.  1.
       11   -1    0    0    0    0 -0.00000000000E+00 -0.00000000000E+00 -0.65000000000E+04  0.65000000000E+04  0.00000000000E+00 0. -1.
       22    1    1    2    0    0 -0.42914178782E+04  0.12231459659E+04 -0.45766319989E+04  0.63920195488E+04  0.00000000000E+00 0. -1.
       22    1    1    2    0    0  0.42826940554E+04 -0.11161834224E+04  0.46923002844E+04  0.64501950175E+04  0.00000000000E+00 0.  1.
       22    1    1    2    0    0  0.87238227950E+01 -0.10696254347E+03 -0.11566828554E+03  0.15778543364E+03  0.00000000000E+00 0.  1.
</event>
<event>
 5   1  0.3604641E-05  0.8028249E+02  0.7546771E-02  0.1203119E+00
      -11   -1    0    0    0    0  0.00000000000E+00  0.00000000000E+00  0.65000000000E+04  0.65000000000E+04  0.00000000000E+00 0.  1.
       11   -1    0    0    0    0 -0.00000000000E+00 -0.00000000000E+00 -0.65000000000E+04  0.65000000000E+04  0.00000000000E+00 0. -1.
       22    1    1    2    0    0  0.40265940303E+03 -0.18752873785E+04 -0.62082509863E+04  0.64977855963E+04  0.00000000000E+00 0. -1.
       22    1    1    2    0    0  0.19516011307E+02  0.15468963439E+02  0.10609940832E+03  0.10898278751E+03  0.00000000000E+00 0.  1.
       22    1    1    2    0    0 -0.42217541434E+03  0.18598184151E+04  0.61021515780E+04  0.63932316162E+04  0.00000000000E+00 0.  1.
</event>
<event>
 5   1  0.3604641E-05  0.8044512E+02  0.7546771E-02  0.1202745E+00
      -11   -1    0    0    0    0  0.00000000000E+00  0.00000000000E+00  0.65000000000E+04  0.65000000000E+04  0.00000000000E+00 0.  1.
       11   -1    0    0    0    0 -0.00000000000E+00 -0.00000000000E+00 -0.65000000000E+04  0.65000000000E+04  0.00000000000E+00 0. -1.
       22    1    1    2    0    0  0.45542324973E+02  0.17507321652E+02 -0.29547413200E+02  0.57040856430E+02  0.00000000000E+00 0. -1.
       22    1    1    2    0    0  0.21937142074E+04 -0.19943104849E+02 -0.60652568169E+04  0.64498155017E+04  0.00000000000E+00 0. -1.
       22    1    1    2    0    0 -0.22392565324E+04  0.24357831974E+01  0.60948042301E+04  0.64931436419E+04  0.00000000000E+00 0.  1.
</event>
<event>
 5   1  0.3604641E-05  0.7624338E+02  0.7546771E-02  0.1212755E+00
      -11   -1    0    0    0    0  0.00000000000E+00  0.00000000000E+00  0.65000000000E+04  0.65000000000E+04  0.00000000000E+00 0. -1.
       11   -1    0    0    0    0 -0.00000000000E+00 -0.00000000000E+00 -0.65000000000E+04  0.65000000000E+04  0.00000000000E+00 0.  1.
       22    1    1    2    0    0 -0.12402898738E+04 -0.21205248487E+04  0.46593325710E+04  0.52672881649E+04  0.00000000000E+00 0. -1.
       22    1    1    2    0    0 -0.17934950872E+03  0.11390685319E+03  0.12838336574E+04  0.13012954612E+04  0.00000000000E+00 0. -1.
       22    1    1    2    0    0  0.14196393825E+04  0.20066179955E+04 -0.59431662284E+04  0.64314163739E+04  0.00000000000E+00 0.  1.
</event>
<event>
 5   1  0.3604641E-05  0.7747445E+02  0.7546771E-02  0.1209749E+00
      -11   -1    0    0    0    0  0.00000000000E+00  0.00000000000E+00  0.65000000000E+04  0.65000000000E+04  0.00000000000E+00 0. -1.
       11   -1    0    0    0    0 -0.00000000000E+00 -0.00000000000E+00 -0.65000000000E+04  0.65000000000E+04  0.00000000000E+00 0.  1.
       22    1    1    2    0    0 -0.41036770567E+03 -0.39226911602E+03 -0.77081892948E+03  0.95730796261E+03  0.00000000000E+00 0.  1.
       22    1    1    2    0    0  0.55813201326E+03  0.21028276871E+04  0.60827771455E+04  0.64601527402E+04  0.00000000000E+00 0. -1.
       22    1    1    2    0    0 -0.14776430760E+03 -0.17105585711E+04 -0.53119582160E+04  0.55825392971E+04  0.00000000000E+00 0.  1.
</event>
<event>
 5   1  0.3604641E-05  0.7992285E+02  0.7546771E-02  0.1203951E+00
      -11   -1    0    0    0    0  0.00000000000E+00  0.00000000000E+00  0.65000000000E+04  0.65000000000E+04  0.00000000000E+00 0. -1.
       11   -1    0    0    0    0 -0.00000000000E+00 -0.00000000000E+00 -0.65000000000E+04  0.65000000000E+04  0.00000000000E+00 0.  1.
       22    1    1    2    0    0  0.19448935702E+04  0.30673861096E+04  0.53797133391E+04  0.64909771341E+04  0.00000000000E+00 0. -1.
       22    1    1    2    0    0 -0.86869371159E+02 -0.21623330787E+02 -0.20395369116E+03  0.22273518855E+03  0.00000000000E+00 0. -1.
       22    1    1    2    0    0 -0.18580241991E+04 -0.30457627788E+04 -0.51757596479E+04  0.62862876773E+04  0.00000000000E+00 0.  1.
</event>
<event>
 5   1  0.3604641E-05  0.8045594E+02  0.7546771E-02  0.1202720E+00
      -11   -1    0    0    0    0  0.00000000000E+00  0.00000000000E+00  0.65000000000E+04  0.65000000000E+04  0.00000000000E+00 0.  1.
       11   -1    0    0    0    0 -0.00000000000E+00 -0.00000000000E+00 -0.65000000000E+04  0.65000000000E+04  0.00000000000E+00 0. -1.
       22    1    1    2    0    0  0.19426844582E+04  0.54480115996E+04  0.28895422112E+04  0.64656250652E+04  0.00000000000E+00 0.  1.
       22    1    1    2    0    0 -0.19083971559E+04 -0.54861809437E+04 -0.28741353855E+04  0.64808035972E+04  0.00000000000E+00 0. -1.
       22    1    1    2    0    0 -0.34287302255E+02  0.38169344098E+02 -0.15406825774E+02  0.53571337535E+02  0.00000000000E+00 0. -1.
</event>
<event>
 5   1  0.3604641E-05  0.8015290E+02  0.7546771E-02  0.1203419E+00
      -11   -1    0    0    0    0  0.00000000000E+00  0.00000000000E+00  0.65000000000E+04  0.65000000000E+04  0.00000000000E+00 0. -1.
       11   -1    0    0    0    0 -0.00000000000E+00 -0.00000000000E+00 -0.65000000000E+04  0.65000000000E+04  0.00000000000E+00 0.  1.
       22    1    1    2    0    0 -0.51304328976E+02  0.47367181075E+01  0.14103183510E+03  0.15014842384E+03  0.00000000000E+00 0.  1.
       22    1    1    2    0    0  0.40016376776E+03 -0.33779866922E+04  0.53831286829E+04  0.63678096352E+04  0.00000000000E+00 0. -1.
       22    1    1    2    0    0 -0.34885943878E+03  0.33732499741E+04 -0.55241605180E+04  0.64820419410E+04  0.00000000000E+00 0.  1.
</event>
<event>
 5   1  0.3604641E-05  0.8032977E+02  0.7546771E-02  0.1203010E+00
      -11   -1    0    0    0    0  0.00000000000E+00  0.00000000000E+00  0.65000000000E+04  0.65000000000E+04  0.00000000000E+00 0.  1.
       11   -1    0    0    0    0 -0.00000000000E+00 -0.00000000000E+00 -0.65000000000E+04  0.65000000000E+04  0.00000000000E+00 0. -1.
       22    1    1    2    0    0 -0.62530463213E+03 -0.92434083358E+03  0.63396465420E+04  0.64371212617E+04  0.00000000000E+00 0.  1.
       22    1    1    2    0    0  0.70068362045E+03  0.87773416643E+03 -0.63707237589E+04  0.64689640605E+04  0.00000000000E+00 0. -1.
       22    1    1    2    0    0 -0.75378988320E+02  0.46606667145E+02  0.31077216902E+02  0.93914677836E+02  0.00000000000E+00 0.  1.
</event>
<event>
 5   1  0.3604641E-05  0.8020044E+02  0.7546771E-02  0.1203309E+00
      -11   -1    0    0    0    0  0.00000000000E+00  0.00000000000E+00  0.65000000000E+04  0.65000000000E+04  0.00000000000E+00 0.  1.
       11   -1    0    0    0    0 -0.00000000000E+00 -0.00000000000E+00 -0.65000000000E+04  0.65000000000E+04  0.00000000000E+00 0. -1.
       22    1    1    2    0    0  0.22302829877E+04  0.77663331514E+01  0.60509912502E+04  0.64489315108E+04  0.00000000000E+00 0.  1.
       22    1    1    2    0    0  0.15933932869E+02 -0.12730620261E+03 -0.42225776420E+02  0.13506952148E+03  0.00000000000E+00 0.  1.
       22    1    1    2    0    0 -0.22462169206E+04  0.11953986946E+03 -0.60087654738E+04  0.64159989677E+04  0.00000000000E+00 0. -1.
</event>
<event>
 5   1  0.3604641E-05  0.8055963E+02  0.7546771E-02  0.1202482E+00
      -11   -1    0    0    0    0  0.00000000000E+00  0.00000000000E+00  0.65000000000E+04  0.65000000000E+04  0.00000000000E+00 0.  1.
       11   -1    0    0    0    0 -0.00000000000E+00 -0.00000000000E+00 -0.65000000000E+04  0.65000000000E+04  0.00000000000E+00 0. -1.
       22    1    1    2    0    0  0.18875901160E+04 -0.60690198132E+04  0.13088186468E+04  0.64891451046E+04  0.00000000000E+00 0.  1.
       22    1    1    2    0    0 -0.10258569983E+02 -0.92268702228E+00  0.17465759343E+02  0.20276645651E+02  0.00000000000E+00 0.  1.
       22    1    1    2    0    0 -0.18773315460E+04  0.60699425002E+04 -0.13262844062E+04  0.64905782497E+04  0.00000000000E+00 0. -1.
</event>
<event>
 5   1  0.3604641E-05  0.8055121E+02  0.7546771E-02  0.1202501E+00
      -11   -1    0    0    0    0  0.00000000000E+00  0.00000000000E+00  0.65000000000E+04  0.65000000000E+04  0.00000000000E+00 0.  1.
       11   -1    0    0    0    0 -0.00000000000E+00 -0.00000000000E+00 -0.65000000000E+04  0.65000000000E+04  0.00000000000E+00 0. -1.
       22    1    1    2    0    0 -0.15651049753E+04 -0.11800160870E+04 -0.61942707134E+04  0.64969978621E+04  0.00000000000E+00 0. -1.
       22    1    1    2    0    0  0.15672712293E+04  0.11628256264E+04  0.61791696260E+04  0.64800185039E+04  0.00000000000E+00 0.  1.
       22    1    1    2    0    0 -0.21662539517E+01  0.17190460577E+02  0.15101087373E+02  0.22983633979E+02  0.00000000000E+00 0. -1.
</event>
<event>
 5   1  0.3604641E-05  0.7799519E+02  0.7546771E-02  0.1208496E+00
      -11   -1    0    0    0    0  0.00000000000E+00  0.00000000000E+00  0.65000000000E+04  0.65000000000E+04  0.00000000000E+00 0. -1.
       11   -1    0    0    0    0 -0.00000000000E+00 -0.00000000000E+00 -0.65000000000E+04  0.65000000000E+04  0.00000000000E+00 0.  1.
       22    1    1    2    0    0 -0.22591182206E+04  0.42018309607E+04  0.43870705378E+04  0.64811562595E+04  0.00000000000E+00 0. -1.
       22    1    1    2    0    0  0.48405317882E+03 -0.44860829699E+03 -0.46404363485E+03  0.80677963479E+03  0.00000000000E+00 0.  1.
       22    1    1    2    0    0  0.17750650417E+04 -0.37532226637E+04 -0.39230269029E+04  0.57120641057E+04  0.00000000000E+00 0.  1.
</event>
<event>
 5   1  0.3604641E-05  0.8054086E+02  0.7546771E-02  0.1202525E+00
      -11   -1    0    0    0    0  0.00000000000E+00  0.00000000000E+00  0.65000000000E+04  0.65000000000E+04  0.00000000000E+00 0.  1.
       11   -1    0    0    0    0 -0.00000000000E+00 -0.00000000000E+00 -0.65000000000E+04  0.65000000000E+04  0.00000000000E+00 0. -1.
       22    1    1    2    0    0 -0.37918201219E+04  0.34870540916E+04 -0.39489622878E+04  0.64908974129E+04  0.00000000000E+00 0. -1.
       22    1    1    2    0    0  0.38050541770E+04 -0.34827781550E+04  0.39266266132E+04  0.64827908748E+04  0.00000000000E+00 0.  1.
       22    1    1    2    0    0 -0.13234055131E+02 -0.42759366633E+01  0.22335674506E+02  0.26311712320E+02  0.00000000000E+00 0.  1.
</event>
<event>
 5   1  0.3604641E-05  0.8056234E+02  0.7546771E-02  0.1202476E+00
      -11   -1    0    0    0    0  0.00000000000E+00  0.00000000000E+00  0.65000000000E+04  0.65000000000E+04  0.00000000000E+00 0.  1.
       11   -1    0    0    0    0 -0.00000000000E+00 -0.00000000000E+00 -0.65000000000E+04  0.65000000000E+04  0.00000000000E+00 0. -1.
       22    1    1    2    0    0 -0.81332838583E+01 -0.70847824576E+01  0.16128301242E+02  0.19402745933E+02  0.00000000000E+00 0. -1.
       22    1    1    2    0    0 -0.97978599551E+03 -0.18164375354E+04  0.61436571393E+04  0.64810453603E+04  0.00000000000E+00 0.  1.
       22    1    1    2    0    0  0.98791927937E+03  0.18235223179E+04 -0.61597854405E+04  0.64995518938E+04  0.00000000000E+00 0. -1.
</event>
<event>
 5   1  0.3604641E-05  0.6834663E+02  0.7546771E-02  0.1233696E+00
      -11   -1    0    0    0    0  0.00000000000E+00  0.00000000000E+00  0.65000000000E+04  0.65000000000E+04  0.00000000000E+00 0.  1.
       11   -1    0    0    0    0 -0.00000000000E+00 -0.00000000000E+00 -0.65000000000E+04  0.65000000000E+04  0.00000000000E+00 0. -1.
       22    1    1    2    0    0 -0.22778123502E+04  0.50861980321E+04  0.93117275254E+02  0.55737339685E+04  0.00000000000E+00 0. -1.
       22    1    1    2    0    0  0.60778574016E+03 -0.36536771743E+04  0.21512450578E+04  0.42832949582E+04  0.00000000000E+00 0.  1.
       22    1    1    2    0    0  0.16700266101E+04 -0.14325208578E+04 -0.22443623330E+04  0.31429710734E+04  0.00000000000E+00 0.  1.
</event>
<event>
 5   1  0.3604641E-05  0.7899243E+02  0.7546771E-02  0.1206126E+00
      -11   -1    0    0    0    0  0.00000000000E+00  0.00000000000E+00  0.65000000000E+04  0.65000000000E+04  0.00000000000E+00 0. -1.
       11   -1    0    0    0    0 -0.00000000000E+00 -0.00000000000E+00 -0.65000000000E+04  0.65000000000E+04  0.00000000000E+00 0.  1.
       22    1    1    2    0    0  0.35282307998E+03 -0.25145626411E+03 -0.26899881316E+03  0.50997523470E+03  0.00000000000E+00 0. -1.
       22    1    1    2    0    0  0.29217622130E+04  0.21905450715E+03  0.55501001450E+04  0.62760091560E+04  0.00000000000E+00 0. -1.
       22    1    1    2    0    0 -0.32745852930E+04  0.32401756958E+02 -0.52811013319E+04  0.62140156093E+04  0.00000000000E+00 0.  1.
</event>
<event>
 5   1  0.3604641E-05  0.8042026E+02  0.7546771E-02  0.1202802E+00
      -11   -1    0    0    0    0  0.00000000000E+00  0.00000000000E+00  0.65000000000E+04  0.65000000000E+04  0.00000000000E+00 0.  1.
       11   -1    0    0    0    0 -0.00000000000E+00 -0.00000000000E+00 -0.65000000000E+04  0.65000000000E+04  0.00000000000E+00 0. -1.
       22    1    1    2    0    0  0.10105610215E+02  0.19382537854E+02  0.61213290731E+02  0.64999023790E+02  0.00000000000E+00 0. -1.
       22    1    1    2    0    0  0.40313434916E+04 -0.24177866256E+04  0.44119726863E+04  0.64469314793E+04  0.00000000000E+00 0.  1.
       22    1    1    2    0    0 -0.40414491018E+04  0.23984040877E+04 -0.44731859771E+04  0.64880694969E+04  0.00000000000E+00 0. -1.
</event>
<event>
 5   1  0.3604641E-05  0.7838781E+02  0.7546771E-02  0.1207558E+00
      -11   -1    0    0    0    0  0.00000000000E+00  0.00000000000E+00  0.65000000000E+04  0.65000000000E+04  0.00000000000E+00 0.  1.
       11   -1    0    0    0    0 -0.00000000000E+00 -0.00000000000E+00 -0.65000000000E+04  0.65000000000E+04  0.00000000000E+00 0. -1.
       22    1    1    2    0    0 -0.42916198626E+04  0.14085643487E+03 -0.40471121402E+04  0.59005896532E+04  0.00000000000E+00 0. -1.
       22    1    1    2    0    0 -0.28840572279E+02  0.13413203504E+03 -0.67752433066E+03  0.69127592181E+03  0.00000000000E+00 0. -1.
       22    1    1    2    0    0  0.43204604348E+04 -0.27498846992E+03  0.47246364708E+04  0.64081344250E+04  0.00000000000E+00 0.  1.
</event>
<event>
 5   1  0.3604641E-05  0.7979000E+02  0.7546771E-02  0.1204260E+00
      -11   -1    0    0    0    0  0.00000000000E+00  0.00000000000E+00  0.65000000000E+04  0.65000000000E+04  0.00000000000E+00 0. -1.
       11   -1    0    0    0    0 -0.00000000000E+00 -0.00000000000E+00 -0.65000000000E+04  0.65000000000E+04  0.00000000000E+00 0.  1.
       22    1    1    2    0    0  0.29548849212E+04 -0.90734680548E+03 -0.55986702245E+04  0.63952897828E+04  0.00000000000E+00 0.  1.
       22    1    1    2    0    0 -0.31510226141E+04  0.92957579162E+03  0.54228118422E+04  0.63403424941E+04  0.00000000000E+00 0. -1.
       22    1    1    2    0    0  0.19613769286E+03 -0.22228986144E+02  0.17585838229E+03  0.26436772308E+03  0.00000000000E+00 0.  1.
</event>
<event>
 5   1  0.3604641E-05  0.8035154E+02  0.7546771E-02  0.1202960E+00
      -11   -1    0    0    0    0  0.00000000000E+00  0.00000000000E+00  0.65000000000E+04  0.65000000000E+04  0.00000000000E+00 0.  1.
       11   -1    0    0    0    0 -0.00000000000E+00 -0.00000000000E+00 -0.65000000000E+04  0.65000000000E+04  0.00000000000E+00 0. -1.
       22    1    1    2    0    0 -0.22232784195E+02  0.41218639134E+02 -0.73281700598E+02  0.86968273224E+02  0.00000000000E+00 0. -1.
       22    1    1    2    0    0 -0.18578119509E+04 -0.44992924583E+04 -0.42216900091E+04  0.64434280009E+04  0.00000000000E+00 0. -1.
       22    1    1    2    0    0  0.18800447351E+04  0.44580738191E+04  0.42949717097E+04  0.64696037259E+04  0.00000000000E+00 0.  1.
</event>
<event>
 5   1  0.3604641E-05  0.7634242E+02  0.7546771E-02  0.1212511E+00
      -11   -1    0    0    0    0  0.00000000000E+00  0.00000000000E+00  0.65000000000E+04  0.65000000000E+04  0.00000000000E+00 0. -1.
       11   -1    0    0    0    0 -0.00000000000E+00 -0.00000000000E+00 -0.65000000000E+04  0.65000000000E+04  0.00000000000E+00 0.  1.
       22    1    1    2    0    0 -0.34334872700E+04 -0.45476366056E+04 -0.95237456427E+03  0.57772701894E+04  0.00000000000E+00 0.  1.
       22    1    1    2    0    0  0.34775299104E+04  0.42952185306E+04  0.22005761061E+04  0.59484999539E+04  0.00000000000E+00 0. -1.
       22    1    1    2    0    0 -0.44042640364E+02  0.25241807502E+03 -0.12482015418E+04  0.12742298567E+04  0.00000000000E+00 0. -1.
</event>
<event>
 5   1  0.3604641E-05  0.7777444E+02  0.7546771E-02  0.1209025E+00
      -11   -1    0    0    0    0  0.00000000000E+00  0.00000000000E+00  0.65000000000E+04  0.65000000000E+04  0.00000000000E+00 0.  1.
       11   -1    0    0    0    0 -0.00000000000E+00 -0.00000000000E+00 -0.65000000000E+04  0.65000000000E+04  0.00000000000E+00 0. -1.
       22    1    1    2    0    0 -0.16350634033E+04  0.51864729121E+04 -0.30389034123E+04  0.62295960985E+04  0.00000000000E+00 0. -1.
       22    1    1    2    0    0 -0.22722702499E+03 -0.38685803173E+02  0.83990807652E+03  0.87096170367E+03  0.00000000000E+00 0. -1.
       22    1    1    2    0    0  0.18622904283E+04 -0.51477871090E+04  0.21989953358E+04  0.58994421978E+04  0.00000000000E+00 0.  1.
</event>
<event>
 5   1  0.3604641E-05  0.7987560E+02  0.7546771E-02  0.1204061E+00
      -11   -1    0    0    0    0  0.00000000000E+00  0.00000000000E+00  0.65000000000E+04  0.65000000000E+04  0.00000000000E+00 0.  1.
       11   -1    0    0    0    0 -0.00000000000E+00 -0.00000000000E+00 -0.65000000000E+04  0.65000000000E+04  0.00000000000E+00 0. -1.
       22    1    1    2    0    0  0.89014934663E+03 -0.49962020303E+04 -0.37185199517E+04  0.62914061399E+04  0.00000000000E+00 0. -1.
       22    1    1    2    0    0 -0.67833803902E+01 -0.23692671330E+03  0.16059444724E+02  0.23756722730E+03  0.00000000000E+00 0. -1.
       22    1    1    2    0    0 -0.88336596624E+03  0.52331287436E+04  0.37024605069E+04  0.64710266328E+04  0.00000000000E+00 0.  1.
</event>
<event>
 5   1  0.3604641E-05  0.7920710E+02  0.7546771E-02  0.1205622E+00
      -11   -1    0    0    0    0  0.00000000000E+00  0.00000000000E+00  0.65000000000E+04  0.65000000000E+04  0.00000000000E+00 0.  1.
       11   -1    0    0    0    0 -0.00000000000E+00 -0.00000000000E+00 -0.65000000000E+04  0.65000000000E+04  0.00000000000E+00 0. -1.
       22    1    1    2    0    0  0.10231772966E+04 -0.10735042067E+04 -0.63129644425E+04  0.64848148096E+04  0.00000000000E+00 0. -1.
       22    1    1    2    0    0 -0.81988758714E+03  0.10779339738E+04  0.59175914706E+04  0.60705886140E+04  0.00000000000E+00 0.  1.
       22    1    1    2    0    0 -0.20328970950E+03 -0.44297671178E+01  0.39537297195E+03  0.44459657643E+03  0.00000000000E+00 0. -1.
</event>
<event>
 5   1  0.3604641E-05  0.8030896E+02  0.7546771E-02  0.1203058E+00
      -11   -1    0    0    0    0  0.00000000000E+00  0.00000000000E+00  0.65000000000E+04  0.65000000000E+04  0.00000000000E+00 0. -1.
       11   -1    0    0    0    0 -0.00000000000E+00 -0.00000000000E+00 -0.65000000000E+04  0.65000000000E+04  0.00000000000E+00 0.  1.
       22    1    1    2    0    0  0.68007387622E+02  0.73850733464E+02 -0.56070091388E+01  0.10055035632E+03  0.00000000000E+00 0.  1.
       22    1    1    2    0    0 -0.44317520743E+03 -0.20740814042E+04  0.61084785722E+04  0.64661989145E+04  0.00000000000E+00 0. -1.
       22    1    1    2    0    0  0.37516781980E+03  0.20002306708E+04 -0.61028715630E+04  0.64332507291E+04  0.00000000000E+00 0.  1.
</event>
<event>
 5   1  0.3604641E-05  0.7953660E+02  0.7546771E-02  0.1204850E+00
      -11   -1    0    0    0    0  0.00000000000E+00  0.00000000000E+00  0.65000000000E+04  0.65000000000E+04  0.00000000000E+00 0. -1.
       11   -1    0    0    0    0 -0.00000000000E+00 -0.00000000000E+00 -0.65000000000E+04  0.65000000000E+04  0.00000000000E+00 0.  1.
       22    1    1    2    0    0 -0.35035171874E+04  0.17992202817E+04 -0.51303942984E+04  0.64678259068E+04  0.00000000000E+00 0.  1.
       22    1    1    2    0    0  0.62839924353E+02  0.57046132272E+02  0.33254597137E+03  0.34320539095E+03  0.00000000000E+00 0. -1.
       22    1    1    2    0    0  0.34406772630E+04 -0.18562664140E+04  0.47978483270E+04  0.61889687022E+04  0.00000000000E+00 0. -1.
</event>
<event>
 5   1  0.3604641E-05  0.7632512E+02  0.7546771E-02  0.1212554E+00
      -11   -1    0    0    0    0  0.00000000000E+00  0.00000000000E+00  0.65000000000E+04  0.65000000000E+04  0.00000000000E+00 0.  1.
       11   -1    0    0    0    0 -0.00000000000E+00 -0.00000000000E+00 -0.65000000000E+04  0.65000000000E+04  0.00000000000E+00 0. -1.
       22    1    1    2    0    0 -0.90242858963E+03 -0.84949181834E+03 -0.31581504400E+03  0.12789655393E+04  0.00000000000E+00 0. -1.
       22    1    1    2    0    0 -0.81186327708E+03 -0.60199999199E+03  0.57514386697E+04  0.58395695683E+04  0.00000000000E+00 0.  1.
       22    1    1    2    0    0  0.17142918667E+04  0.14514918103E+04 -0.54356236257E+04  0.58814648924E+04  0.00000000000E+00 0. -1.
</event>
<event>
 5   1  0.4368032E-05  0.8057621E+02  0.7546771E-02  0.1202444E+00
      -11   -1    0    0    0    0  0.00000000000E+00  0.00000000000E+00  0.65000000000E+04  0.65000000000E+04  0.00000000000E+00 0. -1.
       11   -1    0    0    0    0 -0.00000000000E+00 -0.00000000000E+00 -0.65000000000E+04  0.65000000000E+04  0.00000000000E+00 0.  1.
       22    1    1    2    0    0 -0.22851319502E+03 -0.14210021294E+04  0.63290400733E+04  0.64906250532E+04  0.00000000000E+00 0. -1.
       22    1    1    2    0    0  0.73958872002E+01 -0.12921764094E+02  0.12550339942E+01  0.14941427144E+02  0.00000000000E+00 0.  1.
       22    1    1    2    0    0  0.22111730782E+03  0.14339238935E+04 -0.63302951073E+04  0.64944335197E+04  0.00000000000E+00 0.  1.
</event>
<event>
 5   1  0.3604641E-05  0.8058520E+02  0.7546771E-02  0.1202423E+00
      -11   -1    0    0    0    0  0.00000000000E+00  0.00000000000E+00  0.65000000000E+04  0.65000000000E+04  0.00000000000E+00 0. -1.
       11   -1    0    0    0    0 -0.00000000000E+00 -0.00000000000E+00 -0.65000000000E+04  0.65000000000E+04  0.00000000000E+00 0.  1.
       22    1    1    2    0    0  0.11941747378E+04  0.36022240180E+04 -0.52721930744E+04  0.64960057723E+04  0.00000000000E+00 0.  1.
       22    1    1    2    0    0  0.10207601340E+02 -0.16939029012E+01  0.61637769367E+01  0.12043943635E+02  0.00000000000E+00 0. -1.
       22    1    1    2    0    0 -0.12043823391E+04 -0.36005301151E+04  0.52660292974E+04  0.64919502840E+04  0.00000000000E+00 0. -1.
</event>
<event>
 5   1  0.3604641E-05  0.8056519E+02  0.7546771E-02  0.1202469E+00
      -11   -1    0    0    0    0  0.00000000000E+00  0.00000000000E+00  0.65000000000E+04  0.65000000000E+04  0.00000000000E+00 0. -1.
       11   -1    0    0    0    0 -0.00000000000E+00 -0.00000000000E+00 -0.65000000000E+04  0.65000000000E+04  0.00000000000E+00 0.  1.
       22    1    1    2    0    0  0.28909308357E-01  0.14908968534E+02 -0.10933148670E+02  0.18488156164E+02  0.00000000000E+00 0. -1.
       22    1    1    2    0    0  0.15231842394E+03  0.15957163479E+04  0.62932703954E+04  0.64942100240E+04  0.00000000000E+00 0. -1.
       22    1    1    2    0    0 -0.15234733325E+03 -0.16106253164E+04 -0.62823372468E+04  0.64873018199E+04  0.00000000000E+00 0.  1.
</event>
<event>
 5   1  0.3604641E-05  0.8055811E+02  0.7546771E-02  0.1202485E+00
      -11   -1    0    0    0    0  0.00000000000E+00  0.00000000000E+00  0.65000000000E+04  0.65000000000E+04  0.00000000000E+00 0. -1.
       11   -1    0    0    0    0 -0.00000000000E+00 -0.00000000000E+00 -0.65000000000E+04  0.65000000000E+04  0.00000000000E+00 0.  1.
       22    1    1    2    0    0  0.33711928958E+03 -0.15024474656E+04 -0.63120900169E+04  0.64971900221E+04  0.00000000000E+00 0.  1.
       22    1    1    2    0    0 -0.32456145425E+03  0.15067683757E+04  0.62961270533E+04  0.64820449665E+04  0.00000000000E+00 0. -1.
       22    1    1    2    0    0 -0.12557835337E+02 -0.43209100976E+01  0.15962963561E+02  0.20765011391E+02  0.00000000000E+00 0. -1.
</event>
<event>
 5   1  0.3604641E-05  0.7857015E+02  0.7546771E-02  0.1207125E+00
      -11   -1    0    0    0    0  0.00000000000E+00  0.00000000000E+00  0.65000000000E+04  0.65000000000E+04  0.00000000000E+00 0. -1.
       11   -1    0    0    0    0 -0.00000000000E+00 -0.00000000000E+00 -0.65000000000E+04  0.65000000000E+04  0.00000000000E+00 0.  1.
       22    1    1    2    0    0 -0.20570497227E+04  0.67226297798E+03  0.60989715298E+04  0.64715411452E+04  0.00000000000E+00 0. -1.
       22    1    1    2    0    0  0.33873543918E+03  0.13630070893E+03 -0.52201537612E+03  0.63703974280E+03  0.00000000000E+00 0. -1.
       22    1    1    2    0    0  0.17183142836E+04 -0.80856368691E+03 -0.55769561537E+04  0.58914191120E+04  0.00000000000E+00 0.  1.
</event>
<event>
 5   1  0.3604641E-05  0.7037054E+02  0.7546771E-02  0.1228035E+00
      -11   -1    0    0    0    0  0.00000000000E+00  0.00000000000E+00  0.65000000000E+04  0.65000000000E+04  0.00000000000E+00 0. -1.
       11   -1    0    0    0    0 -0.00000000000E+00 -0.00000000000E+00 -0.65000000000E+04  0.65000000000E+04  0.00000000000E+00 0.  1.
       22    1    1    2    0    0 -0.27933636620E+03 -0.63702350455E+03 -0.26371270161E+04  0.27273185824E+04  0.00000000000E+00 0.  1.
       22    1    1    2    0    0  0.33544570801E+04 -0.23227638743E+04 -0.14821136484E+04  0.43409993302E+04  0.00000000000E+00 0. -1.
       22    1    1    2    0    0 -0.30751207139E+04  0.29597873789E+04  0.41192406646E+04  0.59316820874E+04  0.00000000000E+00 0.  1.
</event>
<event>
 5   1  0.3604641E-05  0.7911041E+02  0.7546771E-02  0.1205849E+00
      -11   -1    0    0    0    0  0.00000000000E+00  0.00000000000E+00  0.65000000000E+04  0.65000000000E+04  0.00000000000E+00 0.  1.
       11   -1    0    0    0    0 -0.00000000000E+00 -0.00000000000E+00 -0.65000000000E+04  0.65000000000E+04  0.00000000000E+00 0. -1.
       22    1    1    2    0    0 -0.17225684749E+03 -0.16120172648E+03 -0.41124486249E+03  0.47411048823E+03  0.00000000000E+00 0. -1.
       22    1    1    2    0    0 -0.92235504103E+03 -0.88268386910E+03 -0.58996805107E+04  0.60362322489E+04  0.00000000000E+00 0. -1.
       22    1    1    2    0    0  0.10946118885E+04  0.10438855956E+04  0.63109253732E+04  0.64896572628E+04  0.00000000000E+00 0.  1.
</event>
<event>
 5   1  0.3604641E-05  0.7862923E+02  0.7546771E-02  0.1206985E+00
      -11   -1    0    0    0    0  0.00000000000E+00  0.00000000000E+00  0.65000000000E+04  0.65000000000E+04  0.00000000000E+00 0.  1.
       11   -1    0    0    0    0 -0.00000000000E+00 -0.00000000000E+00 -0.65000000000E+04  0.65000000000E+04  0.00000000000E+00 0. -1.
       22    1    1    2    0    0 -0.33076620224E+04  0.54796183981E+04 -0.78456194382E+03  0.64484403763E+04  0.00000000000E+00 0.  1.
       22    1    1    2    0    0  0.32064810171E+04 -0.48963678501E+04  0.96682472235E+03  0.59321740265E+04  0.00000000000E+00 0. -1.
       22    1    1    2    0    0  0.10118100537E+03 -0.58325054799E+03 -0.18226277853E+03  0.61938559719E+03  0.00000000000E+00 0. -1.
</event>
<event>
 5   1  0.3604641E-05  0.8031393E+02  0.7546771E-02  0.1203047E+00
      -11   -1    0    0    0    0  0.00000000000E+00  0.00000000000E+00  0.65000000000E+04  0.65000000000E+04  0.00000000000E+00 0. -1.
       11   -1    0    0    0    0 -0.00000000000E+00 -0.00000000000E+00 -0.65000000000E+04  0.65000000000E+04  0.00000000000E+00 0.  1.
       22    1    1    2    0    0  0.38206502438E+04  0.52012056718E+04 -0.51875164581E+03  0.64744893232E+04  0.00000000000E+00 0.  1.
       22    1    1    2    0    0 -0.37335072030E+04 -0.52094233796E+04  0.47257166661E+03  0.64265458812E+04  0.00000000000E+00 0. -1.
       22    1    1    2    0    0 -0.87143040835E+02  0.82177078149E+01  0.46179979208E+02  0.98964795596E+02  0.00000000000E+00 0. -1.
</event>
<event>
 5   1  0.3604641E-05  0.6697076E+02  0.7546771E-02  0.1237673E+00
      -11   -1    0    0    0    0  0.00000000000E+00  0.00000000000E+00  0.65000000000E+04  0.65000000000E+04  0.00000000000E+00 0.  1.
       11   -1    0    0    0    0 -0.00000000000E+00 -0.00000000000E+00 -0.65000000000E+04  0.65000000000E+04  0.00000000000E+00 0. -1.
       22    1    1    2    0    0  0.43128384574E+04  0.15336754375E+04 -0.38159438900E+04  0.59593761149E+04  0.00000000000E+00 0. -1.
       22    1    1    2    0    0 -0.34891070248E+04 -0.83564147899E+03  0.58641712267E+03  0.36353885011E+04  0.00000000000E+00 0.  1.
       22    1    1    2    0    0 -0.82373143261E+03 -0.69803395850E+03  0.32295267673E+04  0.34052353841E+04  0.00000000000E+00 0.  1.
</event>
<event>
 5   1  0.3604641E-05  0.7319210E+02  0.7546771E-02  0.1220492E+00
      -11   -1    0    0    0    0  0.00000000000E+00  0.00000000000E+00  0.65000000000E+04  0.65000000000E+04  0.00000000000E+00 0.  1.
       11   -1    0    0    0    0 -0.00000000000E+00 -0.00000000000E+00 -0.65000000000E+04  0.65000000000E+04  0.00000000000E+00 0. -1.
       22    1    1    2    0    0 -0.25789073824E+04 -0.61654891657E+03 -0.38321140569E+04  0.46600422743E+04  0.00000000000E+00 0. -1.
       22    1    1    2    0    0  0.35621062779E+04 -0.72372663771E+03  0.50905529081E+04  0.62550867533E+04  0.00000000000E+00 0.  1.
       22    1    1    2    0    0 -0.98319889545E+03  0.13402755543E+04 -0.12584388512E+04  0.20848709724E+04  0.00000000000E+00 0. -1.
</event>
<event>
 5   1  0.3604641E-05  0.7365019E+02  0.7546771E-02  0.1219304E+00
      -11   -1    0    0    0    0  0.00000000000E+00  0.00000000000E+00  0.65000000000E+04  0.65000000000E+04  0.00000000000E+00 0.  1.
       11   -1    0    0    0    0 -0.00000000000E+00 -0.00000000000E+00 -0.65000000000E+04  0.65000000000E+04  0.00000000000E+00 0. -1.
       22    1    1    2    0    0 -0.12147597263E+04  0.52935380143E+03 -0.44005996804E+04  0.45957735135E+04  0.00000000000E+00 0. -1.
       22    1    1    2    0    0  0.22194045466E+04 -0.68988378618E+02  0.60354242156E+04  0.64309300571E+04  0.00000000000E+00 0.  1.
       22    1    1    2    0    0 -0.10046448203E+04 -0.46036542281E+03 -0.16348245351E+04  0.19732964294E+04  0.00000000000E+00 0. -1.
</event>
<event>
 5   1  0.3604641E-05  0.6868730E+02  0.7546771E-02  0.1232728E+00
      -11   -1    0    0    0    0  0.00000000000E+00  0.00000000000E+00  0.65000000000E+04  0.65000000000E+04  0.00000000000E+00 0. -1.
       11   -1    0    0    0    0 -0.00000000000E+00 -0.00000000000E+00 -0.65000000000E+04  0.65000000000E+04  0.00000000000E+00 0.  1.
       22    1    1    2    0    0 -0.36322480499E+03  0.52707551558E+03  0.34363362436E+04  0.34954467007E+04  0.00000000000E+00 0. -1.
       22    1    1    2    0    0 -0.10553390016E+04  0.13830479496E+04  0.25362125149E+04  0.30755383204E+04  0.00000000000E+00 0. -1.
       22    1    1    2    0    0  0.14185638066E+04 -0.19101234652E+04 -0.59725487586E+04  0.64290149789E+04  0.00000000000E+00 0.  1.
</event>
<event>
 5   1  0.3604641E-05  0.7673431E+02  0.7546771E-02  0.1211549E+00
      -11   -1    0    0    0    0  0.00000000000E+00  0.00000000000E+00  0.65000000000E+04  0.65000000000E+04  0.00000000000E+00 0. -1.
       11   -1    0    0    0    0 -0.00000000000E+00 -0.00000000000E+00 -0.65000000000E+04  0.65000000000E+04  0.00000000000E+00 0.  1.
       22    1    1    2    0    0  0.18299476138E+03  0.20968700242E+03  0.11323998436E+04  0.11660982495E+04  0.00000000000E+00 0. -1.
       22    1    1    2    0    0 -0.34642254171E+04  0.15580525416E+04 -0.51203240473E+04  0.63754296963E+04  0.00000000000E+00 0.  1.
       22    1    1    2    0    0  0.32812306557E+04 -0.17677395440E+04  0.39879242038E+04  0.54584720542E+04  0.00000000000E+00 0. -1.
</event>
<event>
 5   1  0.3604641E-05  0.7783253E+02  0.7546771E-02  0.1208886E+00
      -11   -1    0    0    0    0  0.00000000000E+00  0.00000000000E+00  0.65000000000E+04  0.65000000000E+04  0.00000000000E+00 0. -1.
       11   -1    0    0    0    0 -0.00000000000E+00 -0.00000000000E+00 -0.65000000000E+04  0.65000000000E+04  0.00000000000E+00 0.  1.
       22    1    1    2    0    0 -0.15548354574E+03 -0.15496330790E+04  0.56673052734E+04  0.58774047738E+04  0.00000000000E+00 0. -1.
       22    1    1    2    0    0 -0.73676770877E+03 -0.36233941111E+03  0.23540243947E+03  0.85412576008E+03  0.00000000000E+00 0.  1.
       22    1    1    2    0    0  0.89225125450E+03  0.19119724901E+04 -0.59027077129E+04  0.62684694661E+04  0.00000000000E+00 0.  1.
</event>
<event>
 5   1  0.3604641E-05  0.7789287E+02  0.7546771E-02  0.1208741E+00
      -11   -1    0    0    0    0  0.00000000000E+00  0.00000000000E+00  0.65000000000E+04  0.65000000000E+04  0.00000000000E+00 0.  1.
       11   -1    0    0    0    0 -0.00000000000E+00 -0.00000000000E+00 -0.65000000000E+04  0.65000000000E+04  0.00000000000E+00 0. -1.
       22    1    1    2    0    0  0.28720119207E+03  0.39062235412E+03  0.68177974795E+03  0.83659666087E+03  0.00000000000E+00 0. -1.
       22    1    1    2    0    0  0.53832756303E+03 -0.53037693985E+04 -0.35593627170E+04  0.64100568913E+04  0.00000000000E+00 0. -1.
       22    1    1    2    0    0 -0.82552875509E+03  0.49131470444E+04  0.28775829691E+04  0.57533464479E+04  0.00000000000E+00 0.  1.
</event>
<event>
 5   1  0.3604641E-05  0.7906873E+02  0.7546771E-02  0.1205947E+00
      -11   -1    0    0    0    0  0.00000000000E+00  0.00000000000E+00  0.65000000000E+04  0.65000000000E+04  0.00000000000E+00 0. -1.
       11   -1    0    0    0    0 -0.00000000000E+00 -0.00000000000E+00 -0.65000000000E+04  0.65000000000E+04  0.00000000000E+00 0.  1.
       22    1    1    2    0    0 -0.23298784068E+04 -0.19966509914E+04  0.57036573171E+04  0.64766237626E+04  0.00000000000E+00 0. -1.
       22    1    1    2    0    0  0.23520601745E+04  0.18836298287E+04 -0.52306784505E+04  0.60365756392E+04  0.00000000000E+00 0.  1.
       22    1    1    2    0    0 -0.22181767722E+02  0.11302116271E+03 -0.47297886663E+03  0.48680059811E+03  0.00000000000E+00 0.  1.
</event>
<event>
 5   1  0.3604641E-05  0.8056719E+02  0.7546771E-02  0.1202464E+00
      -11   -1    0    0    0    0  0.00000000000E+00  0.00000000000E+00  0.65000000000E+04  0.65000000000E+04  0.00000000000E+00 0. -1.
       11   -1    0    0    0    0 -0.00000000000E+00 -0.00000000000E+00 -0.65000000000E+04  0.65000000000E+04  0.00000000000E+00 0.  1.
       22    1    1    2    0    0 -0.58650050560E+04 -0.27666013451E+04  0.28844648627E+03  0.64911916228E+04  0.00000000000E+00 0.  1.
       22    1    1    2    0    0  0.58723005945E+04  0.27510486335E+04 -0.28362136438E+03  0.64909647923E+04  0.00000000000E+00 0. -1.
       22    1    1    2    0    0 -0.72955385841E+01  0.15552711575E+02 -0.48251218895E+01  0.17843584893E+02  0.00000000000E+00 0. -1.
</event>
<event>
 5   1  0.3604641E-05  0.8045722E+02  0.7546771E-02  0.1202717E+00
      -11   -1    0    0    0    0  0.00000000000E+00  0.00000000000E+00  0.65000000000E+04  0.65000000000E+04  0.00000000000E+00 0.  1.
       11   -1    0    0    0    0 -0.00000000000E+00 -0.00000000000E+00 -0.65000000000E+04  0.65000000000E+04  0.00000000000E+00 0. -1.
       22    1    1    2    0    0  0.24933559033E+01 -0.15709635856E+02  0.50725321761E+02  0.53160772664E+02  0.00000000000E+00 0. -1.
       22    1    1    2    0    0 -0.26726310827E+04  0.16216402343E+04  0.56459905229E+04  0.64536720508E+04  0.00000000000E+00 0.  1.
       22    1    1    2    0    0  0.26701377268E+04 -0.16059305984E+04 -0.56967158447E+04  0.64931671765E+04  0.00000000000E+00 0. -1.
</event>
<event>
 5   1  0.3604641E-05  0.7937408E+02  0.7546771E-02  0.1205230E+00
      -11   -1    0    0    0    0  0.00000000000E+00  0.00000000000E+00  0.65000000000E+04  0.65000000000E+04  0.00000000000E+00 0.  1.
       11   -1    0    0    0    0 -0.00000000000E+00 -0.00000000000E+00 -0.65000000000E+04  0.65000000000E+04  0.00000000000E+00 0. -1.
       22    1    1    2    0    0  0.33126948665E+04  0.38763897621E+03  0.51531890670E+04  0.61383685793E+04  0.00000000000E+00 0.  1.
       22    1    1    2    0    0 -0.33554655617E+04 -0.26237523715E+03 -0.55236220211E+04  0.64682602091E+04  0.00000000000E+00 0. -1.
       22    1    1    2    0    0  0.42770695175E+02 -0.12526373906E+03  0.37043295406E+03  0.39337121163E+03  0.00000000000E+00 0.  1.
</event>
<event>
 5   1  0.3604641E-05  0.7959902E+02  0.7546771E-02  0.1204705E+00
      -11   -1    0    0    0    0  0.00000000000E+00  0.00000000000E+00  0.65000000000E+04  0.65000000000E+04  0.00000000000E+00 0.  1.
       11   -1    0    0    0    0 -0.00000000000E+00 -0.00000000000E+00 -0.65000000000E+04  0.65000000000E+04  0.00000000000E+00 0. -1.
       22    1    1    2    0    0  0.71731597367E+02 -0.24506413474E+03  0.19919782581E+03  0.32385432837E+03  0.00000000000E+00 0. -1.
       22    1    1    2    0    0 -0.14178146866E+04  0.14059108754E+04  0.59495332653E+04  0.62756457795E+04  0.00000000000E+00 0.  1.
       22    1    1    2    0    0  0.13460830893E+04 -0.11608467406E+04 -0.61487310911E+04  0.64004998921E+04  0.00000000000E+00 0. -1.
</event>
<event>
 5   1  0.3604641E-05  0.7829788E+02  0.7546771E-02  0.1207772E+00
      -11   -1    0    0    0    0  0.00000000000E+00  0.00000000000E+00  0.65000000000E+04  0.65000000000E+04  0.00000000000E+00 0.  1.
       11   -1    0    0    0    0 -0.00000000000E+00 -0.00000000000E+00 -0.65000000000E+04  0.65000000000E+04  0.00000000000E+00 0. -1.
       22    1    1    2    0    0 -0.16611109603E+04  0.40948307339E+03 -0.55447731529E+04  0.58027127559E+04  0.00000000000E+00 0. -1.
       22    1    1    2    0    0  0.19176152208E+04 -0.21192689438E+03  0.61855053511E+04  0.64794010211E+04  0.00000000000E+00 0.  1.
       22    1    1    2    0    0 -0.25650426046E+03 -0.19755617901E+03 -0.64073219813E+03  0.71788622303E+03  0.00000000000E+00 0. -1.
</event>
<event>
 5   1  0.3604641E-05  0.7671413E+02  0.7546771E-02  0.1211598E+00
      -11   -1    0    0    0    0  0.00000000000E+00  0.00000000000E+00  0.65000000000E+04  0.65000000000E+04  0.00000000000E+00 0. -1.
       11   -1    0    0    0    0 -0.00000000000E+00 -0.00000000000E+00 -0.65000000000E+04  0.65000000000E+04  0.00000000000E+00 0.  1.
       22    1    1    2    0    0  0.15383444198E+03  0.20430185538E+04  0.51533870532E+04  0.55457179848E+04  0.00000000000E+00 0. -1.
       22    1    1    2    0    0  0.66978019231E+02 -0.65417797197E+03  0.96977468749E+03  0.11717072239E+04  0.00000000000E+00 0. -1.
       22    1    1    2    0    0 -0.22081246121E+03 -0.13888405818E+04 -0.61231617407E+04  0.62825747913E+04  0.00000000000E+00 0.  1.
</event>
<event>
 5   1  0.4666298E-05  0.8048428E+02  0.7546771E-02  0.1202655E+00
      -11   -1    0    0    0    0  0.00000000000E+00  0.00000000000E+00  0.65000000000E+04  0.65000000000E+04  0.00000000000E+00 0.  1.
       11   -1    0    0    0    0 -0.00000000000E+00 -0.00000000000E+00 -0.65000000000E+04  0.65000000000E+04  0.00000000000E+00 0. -1.
       22    1    1    2    0    0 -0.21832863305E+02 -0.23415207168E+02 -0.30884488083E+02  0.44483676230E+02  0.00000000000E+00 0. -1.
       22    1    1    2    0    0 -0.16539052910E+02  0.14288084514E+04 -0.63053239332E+04  0.64652051037E+04  0.00000000000E+00 0. -1.
       22    1    1    2    0    0  0.38371916214E+02 -0.14053932443E+04  0.63362084213E+04  0.64903112200E+04  0.00000000000E+00 0.  1.
</event>
<event>
 5   1  0.3604641E-05  0.7978900E+02  0.7546771E-02  0.1204262E+00
      -11   -1    0    0    0    0  0.00000000000E+00  0.00000000000E+00  0.65000000000E+04  0.65000000000E+04  0.00000000000E+00 0.  1.
       11   -1    0    0    0    0 -0.00000000000E+00 -0.00000000000E+00 -0.65000000000E+04  0.65000000000E+04  0.00000000000E+00 0. -1.
       22    1    1    2    0    0 -0.20286578086E+04 -0.79097144512E+03 -0.61075985159E+04  0.64841227597E+04  0.00000000000E+00 0. -1.
       22    1    1    2    0    0  0.45733217678E+02 -0.89248301634E+02  0.24494751719E+03  0.26468107738E+03  0.00000000000E+00 0. -1.
       22    1    1    2    0    0  0.19829245909E+04  0.88021974675E+03  0.58626509987E+04  0.62511961630E+04  0.00000000000E+00 0.  1.
</event>
<event>
 5   1  0.3604641E-05  0.7196317E+02  0.7546771E-02  0.1223729E+00
      -11   -1    0    0    0    0  0.00000000000E+00  0.00000000000E+00  0.65000000000E+04  0.65000000000E+04  0.00000000000E+00 0. -1.
       11   -1    0    0    0    0 -0.00000000000E+00 -0.00000000000E+00 -0.65000000000E+04  0.65000000000E+04  0.00000000000E+00 0.  1.
       22    1    1    2    0    0 -0.41551940429E+04 -0.36278683764E+04  0.27749523356E+04  0.61747410436E+04  0.00000000000E+00 0. -1.
       22    1    1    2    0    0  0.13400886498E+04  0.19455038910E+04  0.23476844203E+03  0.23740133109E+04  0.00000000000E+00 0.  1.
       22    1    1    2    0    0  0.28151053931E+04  0.16823644854E+04 -0.30097207777E+04  0.44512456454E+04  0.00000000000E+00 0.  1.
</event>
<event>
 5   1  0.3604641E-05  0.7750138E+02  0.7546771E-02  0.1209684E+00
      -11   -1    0    0    0    0  0.00000000000E+00  0.00000000000E+00  0.65000000000E+04  0.65000000000E+04  0.00000000000E+00 0. -1.
       11   -1    0    0    0    0 -0.00000000000E+00 -0.00000000000E+00 -0.65000000000E+04  0.65000000000E+04  0.00000000000E+00 0.  1.
       22    1    1    2    0    0 -0.30323069907E+04 -0.20628442933E+04 -0.52546579729E+04  0.64079359139E+04  0.00000000000E+00 0.  1.
       22    1    1    2    0    0 -0.80319645376E+02  0.24313494260E+03  0.91442469734E+03  0.94959905900E+03  0.00000000000E+00 0.  1.
       22    1    1    2    0    0  0.31126266361E+04  0.18197093507E+04  0.43402332755E+04  0.56424650271E+04  0.00000000000E+00 0. -1.
</event>
<event>
 5   1  0.3604641E-05  0.7984877E+02  0.7546771E-02  0.1204123E+00
      -11   -1    0    0    0    0  0.00000000000E+00  0.00000000000E+00  0.65000000000E+04  0.65000000000E+04  0.00000000000E+00 0.  1.
       11   -1    0    0    0    0 -0.00000000000E+00 -0.00000000000E+00 -0.65000000000E+04  0.65000000000E+04  0.00000000000E+00 0. -1.
       22    1    1    2    0    0  0.28464690162E+02  0.23972347232E+03  0.47178412852E+02  0.24597435721E+03  0.00000000000E+00 0. -1.
       22    1    1    2    0    0 -0.21815441233E+04 -0.19743665667E+02  0.59717650115E+04  0.63577906482E+04  0.00000000000E+00 0.  1.
       22    1    1    2    0    0  0.21530794332E+04 -0.21997980665E+03 -0.60189434243E+04  0.63962349946E+04  0.00000000000E+00 0. -1.
</event>
<event>
 5   1  0.3604641E-05  0.7921266E+02  0.7546771E-02  0.1205609E+00
      -11   -1    0    0    0    0  0.00000000000E+00  0.00000000000E+00  0.65000000000E+04  0.65000000000E+04  0.00000000000E+00 0.  1.
       11   -1    0    0    0    0 -0.00000000000E+00 -0.00000000000E+00 -0.65000000000E+04  0.65000000000E+04  0.00000000000E+00 0. -1.
       22    1    1    2    0    0 -0.36749117967E+04  0.29255769493E+04  0.44363622223E+04  0.64610592759E+04  0.00000000000E+00 0.  1.
       22    1    1    2    0    0  0.33079741919E+04 -0.29446096125E+04 -0.41890744081E+04  0.60960448998E+04  0.00000000000E+00 0. -1.
       22    1    1    2    0    0  0.36693760482E+03  0.19032663213E+02 -0.24728781419E+03  0.44289582426E+03  0.00000000000E+00 0. -1.
</event>
<event>
 5   1  0.3604641E-05  0.7894804E+02  0.7546771E-02  0.1206231E+00
      -11   -1    0    0    0    0  0.00000000000E+00  0.00000000000E+00  0.65000000000E+04  0.65000000000E+04  0.00000000000E+00 0. -1.
       11   -1    0    0    0    0 -0.00000000000E+00 -0.00000000000E+00 -0.65000000000E+04  0.65000000000E+04  0.00000000000E+00 0.  1.
       22    1    1    2    0    0 -0.36508282198E+04 -0.39505670716E+04 -0.33566078756E+04  0.63405317843E+04  0.00000000000E+00 0.  1.
       22    1    1    2    0    0  0.10315521501E+03 -0.15372788492E+03  0.48959672652E+03  0.52342928425E+03  0.00000000000E+00 0. -1.
       22    1    1    2    0    0  0.35476730048E+04  0.41042949565E+04  0.28670111491E+04  0.61360389314E+04  0.00000000000E+00 0. -1.
</event>
<event>
 5   1  0.3604641E-05  0.8002923E+02  0.7546771E-02  0.1203705E+00
      -11   -1    0    0    0    0  0.00000000000E+00  0.00000000000E+00  0.65000000000E+04  0.65000000000E+04  0.00000000000E+00 0.  1.
       11   -1    0    0    0    0 -0.00000000000E+00 -0.00000000000E+00 -0.65000000000E+04  0.65000000000E+04  0.00000000000E+00 0. -1.
       22    1    1    2    0    0  0.45458835907E+02  0.63037813008E+02 -0.17255159754E+03  0.18924673166E+03  0.00000000000E+00 0.  1.
       22    1    1    2    0    0 -0.56733518380E+04 -0.31662905347E+03 -0.29152962495E+04  0.63864017457E+04  0.00000000000E+00 0. -1.
       22    1    1    2    0    0  0.56278930021E+04  0.25359124046E+03  0.30878478470E+04  0.64243515226E+04  0.00000000000E+00 0.  1.
</event>
<event>
 5   1  0.3604641E-05  0.7600151E+02  0.7546771E-02  0.1213354E+00
      -11   -1    0    0    0    0  0.00000000000E+00  0.00000000000E+00  0.65000000000E+04  0.65000000000E+04  0.00000000000E+00 0.  1.
       11   -1    0    0    0    0 -0.00000000000E+00 -0.00000000000E+00 -0.65000000000E+04  0.65000000000E+04  0.00000000000E+00 0. -1.
       22    1    1    2    0    0 -0.11725118827E+03 -0.11480034560E+04 -0.50454119646E+04  0.51756972157E+04  0.00000000000E+00 0. -1.
       22    1    1    2    0    0  0.56679872583E+03  0.17398272504E+04  0.61926698857E+04  0.64573539449E+04  0.00000000000E+00 0.  1.
       22    1    1    2    0    0 -0.44954753755E+03 -0.59182379439E+03 -0.11472579211E+04  0.13669488394E+04  0.00000000000E+00 0.  1.
</event>
<event>
 5   1  0.3604641E-05  0.7980227E+02  0.7546771E-02  0.1204231E+00
      -11   -1    0    0    0    0  0.00000000000E+00  0.00000000000E+00  0.65000000000E+04  0.65000000000E+04  0.00000000000E+00 0. -1.
       11   -1    0    0    0    0 -0.00000000000E+00 -0.00000000000E+00 -0.65000000000E+04  0.65000000000E+04  0.00000000000E+00 0.  1.
       22    1    1    2    0    0 -0.13903127400E+03  0.63047571580E+04  0.59534757350E+03  0.63343295817E+04  0.00000000000E+00 0.  1.
       22    1    1    2    0    0  0.10620443576E+03 -0.63475675188E+04 -0.85023367173E+03  0.64051377881E+04  0.00000000000E+00 0. -1.
       22    1    1    2    0    0  0.32826838238E+02  0.42810360804E+02  0.25488609823E+03  0.26053263015E+03  0.00000000000E+00 0.  1.
</event>
<event>
 5   1  0.3604641E-05  0.8056565E+02  0.7546771E-02  0.1202468E+00
      -11   -1    0    0    0    0  0.00000000000E+00  0.00000000000E+00  0.65000000000E+04  0.65000000000E+04  0.00000000000E+00 0.  1.
       11   -1    0    0    0    0 -0.00000000000E+00 -0.00000000000E+00 -0.65000000000E+04  0.65000000000E+04  0.00000000000E+00 0. -1.
       22    1    1    2    0    0  0.10038766208E+04  0.60395645667E+03 -0.63869687377E+04  0.64935276489E+04  0.00000000000E+00 0. -1.
       22    1    1    2    0    0 -0.99105954894E+03 -0.59103987963E+03  0.63846975901E+04  0.64881345921E+04  0.00000000000E+00 0.  1.
       22    1    1    2    0    0 -0.12817071832E+02 -0.12916577045E+02  0.22711476184E+01  0.18337758981E+02  0.00000000000E+00 0. -1.
</event>
<event>
 5   1  0.3604641E-05  0.8046189E+02  0.7546771E-02  0.1202706E+00
      -11   -1    0    0    0    0  0.00000000000E+00  0.00000000000E+00  0.65000000000E+04  0.65000000000E+04  0.00000000000E+00 0.  1.
       11   -1    0    0    0    0 -0.00000000000E+00 -0.00000000000E+00 -0.65000000000E+04  0.65000000000E+04  0.00000000000E+00 0. -1.
       22    1    1    2    0    0  0.14655863963E+04  0.28990706240E+03 -0.62869591395E+04  0.64620310129E+04  0.00000000000E+00 0. -1.
       22    1    1    2    0    0 -0.38828759563E+02  0.59571426704E+01 -0.33559238854E+02  0.51666068464E+02  0.00000000000E+00 0.  1.
       22    1    1    2    0    0 -0.14267576368E+04 -0.29586420507E+03  0.63205183783E+04  0.64863029187E+04  0.00000000000E+00 0.  1.
</event>
<event>
 5   1  0.3604641E-05  0.8052370E+02  0.7546771E-02  0.1202564E+00
      -11   -1    0    0    0    0  0.00000000000E+00  0.00000000000E+00  0.65000000000E+04  0.65000000000E+04  0.00000000000E+00 0.  1.
       11   -1    0    0    0    0 -0.00000000000E+00 -0.00000000000E+00 -0.65000000000E+04  0.65000000000E+04  0.00000000000E+00 0. -1.
       22    1    1    2    0    0  0.34116084792E+04  0.64513840434E+03 -0.54896055453E+04  0.64954634183E+04  0.00000000000E+00 0. -1.
       22    1    1    2    0    0  0.40471701856E+01 -0.15133341892E+02  0.27706455214E+02  0.31828372309E+02  0.00000000000E+00 0.  1.
       22    1    1    2    0    0 -0.34156556494E+04 -0.63000506244E+03  0.54618990900E+04  0.64727082094E+04  0.00000000000E+00 0.  1.
</event>
