<event>
 5   0  0.2312110E+08  0.9118800E+02  0.7546771E-02  0.1180000E+00
      -11   -1    0    0    0    0  0.00000000000E+00  0.00000000000E+00  0.34996269501E-01  0.35000000000E-01  0.51099999109E-03 0. -1.
       11   -1    0    0    0    0 -0.00000000000E+00 -0.00000000000E+00 -0.34996269501E-01  0.35000000000E-01  0.51099999109E-03 0.  1.
       22    1    1    2    0    0  0.35527638779E-03  0.23889671345E-03 -0.34997126014E-01  0.34999744602E-01  0.00000000000E+00 0.  1.
       22    1    1    2    0    0  0.10477651035E-05 -0.24621771967E-05  0.66750078513E-05  0.71913738656E-05  0.00000000000E+00 0. -1.
       22    1    1    2    0    0 -0.35632415289E-03 -0.23643453626E-03  0.34990451006E-01  0.34993064024E-01  0.00000000000E+00 0. -1.
</event>
<event>
 5   0  0.2312110E+08  0.9118800E+02  0.7546771E-02  0.1180000E+00
      -11   -1    0    0    0    0  0.00000000000E+00  0.00000000000E+00  0.34996269501E-01  0.35000000000E-01  0.51099999109E-03 0. -1.
       11   -1    0    0    0    0 -0.00000000000E+00 -0.00000000000E+00 -0.34996269501E-01  0.35000000000E-01  0.51099999109E-03 0.  1.
       22    1    1    2    0    0 -0.79735486303E-03  0.13068651337E-01 -0.31926478247E-01  0.34506889686E-01  0.00000000000E+00 0.  1.
       22    1    1    2    0    0  0.55280361787E-04 -0.13639098037E-01  0.24780214813E-01  0.28285810884E-01  0.00000000000E+00 0. -1.
       22    1    1    2    0    0  0.74207450124E-03  0.57044669911E-03  0.71462634342E-02  0.72072994300E-02  0.00000000000E+00 0.  1.
</event>
<event>
 5   0  0.2312110E+08  0.9118800E+02  0.7546771E-02  0.1180000E+00
      -11   -1    0    0    0    0  0.00000000000E+00  0.00000000000E+00  0.34996269501E-01  0.35000000000E-01  0.51099999109E-03 0. -1.
       11   -1    0    0    0    0 -0.00000000000E+00 -0.00000000000E+00 -0.34996269501E-01  0.35000000000E-01  0.51099999109E-03 0. -1.
       22    1    1    2    0    0  0.44818150324E-10  0.40612457273E-10 -0.35001457539E-01  0.34999895519E-01  0.00000000000E+00 0. -1.
       22    1    1    2    0    0  0.59268676736E-06  0.53706959885E-06  0.14257992954E-05  0.16348165001E-05  0.00000000000E+00 0. -1.
       22    1    1    2    0    0 -0.59273158551E-06 -0.53711021130E-06  0.35000031739E-01  0.34998469665E-01  0.00000000000E+00 0. -1.
</event>
<event>
 5   0  0.2312110E+08  0.9118800E+02  0.7546771E-02  0.1180000E+00
      -11   -1    0    0    0    0  0.00000000000E+00  0.00000000000E+00  0.34996269501E-01  0.35000000000E-01  0.51099999109E-03 0. -1.
       11   -1    0    0    0    0 -0.00000000000E+00 -0.00000000000E+00 -0.34996269501E-01  0.35000000000E-01  0.51099999109E-03 0.  1.
       22    1    1    2    0    0  0.61654910021E-08 -0.30512302127E-08  0.48534646574E-07  0.49019742994E-07  0.00000000000E+00 0.  1.
       22    1    1    2    0    0  0.13715982459E-02  0.69510422786E-03 -0.34966205448E-01  0.34999999644E-01  0.00000000000E+00 0.  1.
       22    1    1    2    0    0 -0.13716044113E-02 -0.69510117663E-03  0.34966156913E-01  0.34999951337E-01  0.00000000000E+00 0. -1.
</event>
<event>
 5   0  0.2312110E+08  0.9118800E+02  0.7546771E-02  0.1180000E+00
      -11   -1    0    0    0    0  0.00000000000E+00  0.00000000000E+00  0.34996269501E-01  0.35000000000E-01  0.51099999109E-03 0.  1.
       11   -1    0    0    0    0 -0.00000000000E+00 -0.00000000000E+00 -0.34996269501E-01  0.35000000000E-01  0.51099999109E-03 0. -1.
       22    1    1    2    0    0 -0.13023799582E-02  0.49888470742E-02  0.34594182357E-01  0.34976309720E-01  0.00000000000E+00 0.  1.
       22    1    1    2    0    0  0.13114103583E-02 -0.50033036658E-02 -0.34613563357E-01  0.34997880121E-01  0.00000000000E+00 0. -1.
       22    1    1    2    0    0 -0.90304001349E-05  0.14456591517E-04  0.19380999782E-04  0.25810159190E-04  0.00000000000E+00 0. -1.
</event>
