<event>
 5   0  0.4631646E+07  0.9118800E+02  0.7546771E-02  0.1180000E+00
      -11   -1    0    0    0    0  0.00000000000E+00  0.00000000000E+00  0.34996269501E-01  0.35000000000E-01  0.51099999109E-03 0. -1.
       11   -1    0    0    0    0 -0.00000000000E+00 -0.00000000000E+00 -0.34996269501E-01  0.35000000000E-01  0.51099999109E-03 0.  1.
       22    1    1    2    0    0  0.49652570522E-03  0.28322132077E-03  0.34988296684E-01  0.34992965821E-01  0.00000000000E+00 0. -1.
       22    1    1    2    0    0  0.15267685441E-06 -0.45163887594E-05  0.63276638268E-05  0.77756290519E-05  0.00000000000E+00 0. -1.
       22    1    1    2    0    0 -0.49667838208E-03 -0.27870493202E-03 -0.34994624348E-01  0.34999258550E-01  0.00000000000E+00 0.  1.
</event>
<event>
 5   0  0.4631646E+07  0.9118800E+02  0.7546771E-02  0.1180000E+00
      -11   -1    0    0    0    0  0.00000000000E+00  0.00000000000E+00  0.34996269501E-01  0.35000000000E-01  0.51099999109E-03 0. -1.
       11   -1    0    0    0    0 -0.00000000000E+00 -0.00000000000E+00 -0.34996269501E-01  0.35000000000E-01  0.51099999109E-03 0.  1.
       22    1    1    2    0    0 -0.30669375139E-02  0.59652885046E-02 -0.26200843421E-01  0.27045793918E-01  0.00000000000E+00 0.  1.
       22    1    1    2    0    0 -0.10415991367E-02  0.58415051623E-03 -0.78990549283E-02  0.79888190208E-02  0.00000000000E+00 0. -1.
       22    1    1    2    0    0  0.41085366506E-02 -0.65494390208E-02  0.34099898350E-01  0.34965387061E-01  0.00000000000E+00 0. -1.
</event>
<event>
 5   0  0.4631646E+07  0.9118800E+02  0.7546771E-02  0.1180000E+00
      -11   -1    0    0    0    0  0.00000000000E+00  0.00000000000E+00  0.34996269501E-01  0.35000000000E-01  0.51099999109E-03 0. -1.
       11   -1    0    0    0    0 -0.00000000000E+00 -0.00000000000E+00 -0.34996269501E-01  0.35000000000E-01  0.51099999109E-03 0.  1.
       22    1    1    2    0    0 -0.72718335788E-02 -0.11199410032E-01 -0.32350200420E-01  0.34997740154E-01  0.00000000000E+00 0.  1.
       22    1    1    2    0    0  0.88906469181E-05  0.26506824492E-06  0.32754102373E-05  0.94785112765E-05  0.00000000000E+00 0. -1.
       22    1    1    2    0    0  0.72629429319E-02  0.11199144963E-01  0.32346925010E-01  0.34992781335E-01  0.00000000000E+00 0. -1.
</event>
<event>
 5   0  0.4631646E+07  0.9118800E+02  0.7546771E-02  0.1180000E+00
      -11   -1    0    0    0    0  0.00000000000E+00  0.00000000000E+00  0.34996269501E-01  0.35000000000E-01  0.51099999109E-03 0. -1.
       11   -1    0    0    0    0 -0.00000000000E+00 -0.00000000000E+00 -0.34996269501E-01  0.35000000000E-01  0.51099999109E-03 0.  1.
       22    1    1    2    0    0 -0.17786333747E-04 -0.68946804538E-05  0.40892219924E-05  0.19509280438E-04  0.00000000000E+00 0. -1.
       22    1    1    2    0    0  0.77930048501E-03  0.12184153647E-02 -0.34962701155E-01  0.34992603752E-01  0.00000000000E+00 0.  1.
       22    1    1    2    0    0 -0.76151415127E-03 -0.12115206843E-02  0.34958611933E-01  0.34987886968E-01  0.00000000000E+00 0. -1.
</event>
<event>
 5   0  0.5329396E+07  0.9118800E+02  0.7546771E-02  0.1180000E+00
      -11   -1    0    0    0    0  0.00000000000E+00  0.00000000000E+00  0.34996269501E-01  0.35000000000E-01  0.51099999109E-03 0.  1.
       11   -1    0    0    0    0 -0.00000000000E+00 -0.00000000000E+00 -0.34996269501E-01  0.35000000000E-01  0.51099999109E-03 0. -1.
       22    1    1    2    0    0 -0.11813071512E-05 -0.73918315719E-07  0.45437348452E-05  0.46953675944E-05  0.00000000000E+00 0.  1.
       22    1    1    2    0    0 -0.26924842173E-03  0.25840743017E-03 -0.34997930153E-01  0.34999919773E-01  0.00000000000E+00 0. -1.
       22    1    1    2    0    0  0.27042972888E-03 -0.25833351185E-03  0.34993386418E-01  0.34995384859E-01  0.00000000000E+00 0.  1.
</event>
<event>
 5   0  0.4631646E+07  0.9118800E+02  0.7546771E-02  0.1180000E+00
      -11   -1    0    0    0    0  0.00000000000E+00  0.00000000000E+00  0.34996269501E-01  0.35000000000E-01  0.51099999109E-03 0.  1.
       11   -1    0    0    0    0 -0.00000000000E+00 -0.00000000000E+00 -0.34996269501E-01  0.35000000000E-01  0.51099999109E-03 0. -1.
       22    1    1    2    0    0 -0.37601303215E-07  0.22097068945E-08  0.19770849734E-05  0.19774437370E-05  0.00000000000E+00 0.  1.
       22    1    1    2    0    0  0.31645197318E-01  0.30277212811E-02 -0.14641561051E-01  0.34999441703E-01  0.00000000000E+00 0. -1.
       22    1    1    2    0    0 -0.31645159717E-01 -0.30277234908E-02  0.14639583966E-01  0.34998580854E-01  0.00000000000E+00 0.  1.
</event>
<event>
 5   0  0.4631646E+07  0.9118800E+02  0.7546771E-02  0.1180000E+00
      -11   -1    0    0    0    0  0.00000000000E+00  0.00000000000E+00  0.34996269501E-01  0.35000000000E-01  0.51099999109E-03 0. -1.
       11   -1    0    0    0    0 -0.00000000000E+00 -0.00000000000E+00 -0.34996269501E-01  0.35000000000E-01  0.51099999109E-03 0.  1.
       22    1    1    2    0    0 -0.13304752164E-03  0.34520998342E-04  0.78208259048E-04  0.15814510465E-03  0.00000000000E+00 0.  1.
       22    1    1    2    0    0 -0.71423209154E-02  0.41943571866E-02 -0.33947218897E-01  0.34943083023E-01  0.00000000000E+00 0.  1.
       22    1    1    2    0    0  0.72753684371E-02 -0.42288781849E-02  0.33869010638E-01  0.34898771873E-01  0.00000000000E+00 0. -1.
</event>
<event>
 5   0  0.4631646E+07  0.9118800E+02  0.7546771E-02  0.1180000E+00
      -11   -1    0    0    0    0  0.00000000000E+00  0.00000000000E+00  0.34996269501E-01  0.35000000000E-01  0.51099999109E-03 0.  1.
       11   -1    0    0    0    0 -0.00000000000E+00 -0.00000000000E+00 -0.34996269501E-01  0.35000000000E-01  0.51099999109E-03 0.  1.
       22    1    1    2    0    0 -0.23625247319E-03 -0.33977505895E-03  0.33754398670E-01  0.33756935463E-01  0.00000000000E+00 0.  1.
       22    1    1    2    0    0  0.25073040874E-03 -0.60723658927E-05 -0.34974200122E-01  0.34975099382E-01  0.00000000000E+00 0.  1.
       22    1    1    2    0    0 -0.14477935551E-04  0.34584742484E-03  0.12198014519E-02  0.12679651549E-02  0.00000000000E+00 0. -1.
</event>
<event>
 5   0  0.4631646E+07  0.9118800E+02  0.7546771E-02  0.1180000E+00
      -11   -1    0    0    0    0  0.00000000000E+00  0.00000000000E+00  0.34996269501E-01  0.35000000000E-01  0.51099999109E-03 0.  1.
       11   -1    0    0    0    0 -0.00000000000E+00 -0.00000000000E+00 -0.34996269501E-01  0.35000000000E-01  0.51099999109E-03 0. -1.
       22    1    1    2    0    0  0.17072162053E-02 -0.20567737633E-01 -0.28158134122E-01  0.34911701989E-01  0.00000000000E+00 0. -1.
       22    1    1    2    0    0 -0.16553492205E-04  0.74933243116E-05  0.91728388698E-03  0.91746383979E-03  0.00000000000E+00 0. -1.
       22    1    1    2    0    0 -0.16906627131E-02  0.20560244309E-01  0.27240850235E-01  0.34170834171E-01  0.00000000000E+00 0.  1.
</event>
<event>
 5   0  0.4631646E+07  0.9118800E+02  0.7546771E-02  0.1180000E+00
      -11   -1    0    0    0    0  0.00000000000E+00  0.00000000000E+00  0.34996269501E-01  0.35000000000E-01  0.51099999109E-03 0. -1.
       11   -1    0    0    0    0 -0.00000000000E+00 -0.00000000000E+00 -0.34996269501E-01  0.35000000000E-01  0.51099999109E-03 0.  1.
       22    1    1    2    0    0 -0.42146572345E-03 -0.20810374137E-01 -0.28137855311E-01  0.34999831522E-01  0.00000000000E+00 0.  1.
       22    1    1    2    0    0  0.42038407005E-03  0.20809438234E-01  0.28136680231E-01  0.34998317343E-01  0.00000000000E+00 0. -1.
       22    1    1    2    0    0  0.10816533944E-05  0.93590276296E-06  0.11750798741E-05  0.18511349917E-05  0.00000000000E+00 0. -1.
</event>
<event>
 5   0  0.4631646E+07  0.9118800E+02  0.7546771E-02  0.1180000E+00
      -11   -1    0    0    0    0  0.00000000000E+00  0.00000000000E+00  0.34996269501E-01  0.35000000000E-01  0.51099999109E-03 0. -1.
       11   -1    0    0    0    0 -0.00000000000E+00 -0.00000000000E+00 -0.34996269501E-01  0.35000000000E-01  0.51099999109E-03 0.  1.
       22    1    1    2    0    0 -0.18851625802E-02  0.13549217348E-03  0.20071129138E-02  0.27569364033E-02  0.00000000000E+00 0. -1.
       22    1    1    2    0    0  0.13260395933E-01  0.32315455229E-02 -0.32108201120E-01  0.34888645229E-01  0.00000000000E+00 0.  1.
       22    1    1    2    0    0 -0.11375233353E-01 -0.33670376964E-02  0.30101088206E-01  0.32354418367E-01  0.00000000000E+00 0. -1.
</event>
<event>
 5   0  0.4631646E+07  0.9118800E+02  0.7546771E-02  0.1180000E+00
      -11   -1    0    0    0    0  0.00000000000E+00  0.00000000000E+00  0.34996269501E-01  0.35000000000E-01  0.51099999109E-03 0. -1.
       11   -1    0    0    0    0 -0.00000000000E+00 -0.00000000000E+00 -0.34996269501E-01  0.35000000000E-01  0.51099999109E-03 0.  1.
       22    1    1    2    0    0 -0.56719810203E-02  0.76179323665E-03 -0.30253623596E-01  0.30790151645E-01  0.00000000000E+00 0.  1.
       22    1    1    2    0    0  0.17978505383E-03  0.21330007048E-03 -0.42495428886E-02  0.42586892758E-02  0.00000000000E+00 0.  1.
       22    1    1    2    0    0  0.54921959664E-02 -0.97509330712E-03  0.34503166485E-01  0.34951159079E-01  0.00000000000E+00 0. -1.
</event>
<event>
 5   0  0.4631646E+07  0.9118800E+02  0.7546771E-02  0.1180000E+00
      -11   -1    0    0    0    0  0.00000000000E+00  0.00000000000E+00  0.34996269501E-01  0.35000000000E-01  0.51099999109E-03 0.  1.
       11   -1    0    0    0    0 -0.00000000000E+00 -0.00000000000E+00 -0.34996269501E-01  0.35000000000E-01  0.51099999109E-03 0. -1.
       22    1    1    2    0    0 -0.12116605978E-02 -0.35464371921E-02 -0.26286498421E-01  0.26552313221E-01  0.00000000000E+00 0. -1.
       22    1    1    2    0    0  0.57912841185E-02  0.65383968507E-02 -0.60671430322E-02  0.10634840370E-01  0.00000000000E+00 0. -1.
       22    1    1    2    0    0 -0.45796235207E-02 -0.29919596586E-02  0.32353641453E-01  0.32812846409E-01  0.00000000000E+00 0.  1.
</event>
<event>
 5   0  0.4631646E+07  0.9118800E+02  0.7546771E-02  0.1180000E+00
      -11   -1    0    0    0    0  0.00000000000E+00  0.00000000000E+00  0.34996269501E-01  0.35000000000E-01  0.51099999109E-03 0. -1.
       11   -1    0    0    0    0 -0.00000000000E+00 -0.00000000000E+00 -0.34996269501E-01  0.35000000000E-01  0.51099999109E-03 0.  1.
       22    1    1    2    0    0  0.11810127261E-01  0.80709529215E-03  0.32411332289E-01  0.34505433913E-01  0.00000000000E+00 0. -1.
       22    1    1    2    0    0 -0.11682861783E-01 -0.95420998651E-03 -0.32922854755E-01  0.34947305209E-01  0.00000000000E+00 0.  1.
       22    1    1    2    0    0 -0.12726547878E-03  0.14711469437E-03  0.51152246625E-03  0.54726087825E-03  0.00000000000E+00 0. -1.
</event>
<event>
 5   0  0.4631646E+07  0.9118800E+02  0.7546771E-02  0.1180000E+00
      -11   -1    0    0    0    0  0.00000000000E+00  0.00000000000E+00  0.34996269501E-01  0.35000000000E-01  0.51099999109E-03 0. -1.
       11   -1    0    0    0    0 -0.00000000000E+00 -0.00000000000E+00 -0.34996269501E-01  0.35000000000E-01  0.51099999109E-03 0.  1.
       22    1    1    2    0    0  0.24341704829E-02  0.92231001102E-02 -0.33605398539E-01  0.34932986883E-01  0.00000000000E+00 0.  1.
       22    1    1    2    0    0 -0.23249961041E-02 -0.92601990512E-02  0.33621259215E-01  0.34950621805E-01  0.00000000000E+00 0. -1.
       22    1    1    2    0    0 -0.10917437881E-03  0.37098940994E-04 -0.15860676030E-04  0.11639131177E-03  0.00000000000E+00 0. -1.
</event>
<event>
 5   0  0.4631646E+07  0.9118800E+02  0.7546771E-02  0.1180000E+00
      -11   -1    0    0    0    0  0.00000000000E+00  0.00000000000E+00  0.34996269501E-01  0.35000000000E-01  0.51099999109E-03 0. -1.
       11   -1    0    0    0    0 -0.00000000000E+00 -0.00000000000E+00 -0.34996269501E-01  0.35000000000E-01  0.51099999109E-03 0.  1.
       22    1    1    2    0    0 -0.26771684205E-02  0.95670645731E-03 -0.59145043996E-02  0.65623075431E-02  0.00000000000E+00 0.  1.
       22    1    1    2    0    0  0.15354854447E-02 -0.15297708455E-02  0.34628013629E-01  0.34695781333E-01  0.00000000000E+00 0. -1.
       22    1    1    2    0    0  0.11416829758E-02  0.57306438817E-03 -0.28713509229E-01  0.28741911124E-01  0.00000000000E+00 0.  1.
</event>
<event>
 5   0  0.4631646E+07  0.9118800E+02  0.7546771E-02  0.1180000E+00
      -11   -1    0    0    0    0  0.00000000000E+00  0.00000000000E+00  0.34996269501E-01  0.35000000000E-01  0.51099999109E-03 0. -1.
       11   -1    0    0    0    0 -0.00000000000E+00 -0.00000000000E+00 -0.34996269501E-01  0.35000000000E-01  0.51099999109E-03 0.  1.
       22    1    1    2    0    0  0.32705842136E-01  0.77558813628E-02 -0.73669718820E-02  0.34410726238E-01  0.00000000000E+00 0.  1.
       22    1    1    2    0    0 -0.33092803581E-01 -0.73045422100E-02  0.64519579000E-02  0.34498083229E-01  0.00000000000E+00 0. -1.
       22    1    1    2    0    0  0.38696144484E-03 -0.45133915279E-03  0.91501398205E-03  0.10911905324E-02  0.00000000000E+00 0. -1.
</event>
<event>
 5   0  0.4631646E+07  0.9118800E+02  0.7546771E-02  0.1180000E+00
      -11   -1    0    0    0    0  0.00000000000E+00  0.00000000000E+00  0.34996269501E-01  0.35000000000E-01  0.51099999109E-03 0.  1.
       11   -1    0    0    0    0 -0.00000000000E+00 -0.00000000000E+00 -0.34996269501E-01  0.35000000000E-01  0.51099999109E-03 0. -1.
       22    1    1    2    0    0 -0.62216874566E-04 -0.12231027442E-03 -0.70821009891E-04  0.15442266074E-03  0.00000000000E+00 0. -1.
       22    1    1    2    0    0  0.23584138451E-01  0.10839719414E-01  0.23459256943E-01  0.34986395067E-01  0.00000000000E+00 0.  1.
       22    1    1    2    0    0 -0.23521921576E-01 -0.10717409139E-01 -0.23388435933E-01  0.34859182273E-01  0.00000000000E+00 0. -1.
</event>
<event>
 5   0  0.4631646E+07  0.9118800E+02  0.7546771E-02  0.1180000E+00
      -11   -1    0    0    0    0  0.00000000000E+00  0.00000000000E+00  0.34996269501E-01  0.35000000000E-01  0.51099999109E-03 0. -1.
       11   -1    0    0    0    0 -0.00000000000E+00 -0.00000000000E+00 -0.34996269501E-01  0.35000000000E-01  0.51099999109E-03 0.  1.
       22    1    1    2    0    0  0.34534248515E-02 -0.33014801882E-01 -0.86073044990E-03  0.33206085939E-01  0.00000000000E+00 0. -1.
       22    1    1    2    0    0  0.25143894947E-02 -0.41629572981E-03 -0.11041945195E-02  0.27775352747E-02  0.00000000000E+00 0.  1.
       22    1    1    2    0    0 -0.59678143462E-02  0.33431097612E-01  0.19649249694E-02  0.34016378786E-01  0.00000000000E+00 0.  1.
</event>
