<event>
 5   0  0.4587701E+07  0.9118800E+02  0.7546771E-02  0.1180000E+00
      -11   -1    0    0    0    0  0.00000000000E+00  0.00000000000E+00  0.34996269501E-01  0.35000000000E-01  0.51099999109E-03 0.  1.
       11   -1    0    0    0    0 -0.00000000000E+00 -0.00000000000E+00 -0.34996269501E-01  0.35000000000E-01  0.51099999109E-03 0. -1.
       22    1    1    2    0    0 -0.16373390681E-01 -0.71529837016E-03 -0.21404630771E-01  0.26958445664E-01  0.00000000000E+00 0. -1.
       22    1    1    2    0    0  0.72262514769E-02  0.75989467665E-02 -0.68706569608E-02  0.12536691327E-01  0.00000000000E+00 0.  1.
       22    1    1    2    0    0  0.91471392041E-02 -0.68836483963E-02  0.28275287732E-01  0.30504863009E-01  0.00000000000E+00 0.  1.
</event>
<event>
 5   0  0.4587701E+07  0.9118800E+02  0.7546771E-02  0.1180000E+00
      -11   -1    0    0    0    0  0.00000000000E+00  0.00000000000E+00  0.34996269501E-01  0.35000000000E-01  0.51099999109E-03 0. -1.
       11   -1    0    0    0    0 -0.00000000000E+00 -0.00000000000E+00 -0.34996269501E-01  0.35000000000E-01  0.51099999109E-03 0.  1.
       22    1    1    2    0    0 -0.15209374177E-01  0.14606334555E-02  0.31488705393E-01  0.34999958290E-01  0.00000000000E+00 0. -1.
       22    1    1    2    0    0  0.11249660101E-07 -0.70733597097E-08  0.45643755281E-07  0.47538822726E-07  0.00000000000E+00 0.  1.
       22    1    1    2    0    0  0.15209362928E-01 -0.14606263822E-02 -0.31488751037E-01  0.34999994171E-01  0.00000000000E+00 0.  1.
</event>
<event>
 5   0  0.4587701E+07  0.9118800E+02  0.7546771E-02  0.1180000E+00
      -11   -1    0    0    0    0  0.00000000000E+00  0.00000000000E+00  0.34996269501E-01  0.35000000000E-01  0.51099999109E-03 0.  1.
       11   -1    0    0    0    0 -0.00000000000E+00 -0.00000000000E+00 -0.34996269501E-01  0.35000000000E-01  0.51099999109E-03 0. -1.
       22    1    1    2    0    0 -0.79475783742E-02 -0.15712341291E-01 -0.30248278058E-01  0.34999999948E-01  0.00000000000E+00 0. -1.
       22    1    1    2    0    0  0.79475769612E-02  0.15712340116E-01  0.30248273897E-01  0.34999995503E-01  0.00000000000E+00 0.  1.
       22    1    1    2    0    0  0.14129214306E-08  0.11755747251E-08  0.41613244955E-08  0.45491696452E-08  0.00000000000E+00 0. -1.
</event>
<event>
 5   0  0.4587701E+07  0.9118800E+02  0.7546771E-02  0.1180000E+00
      -11   -1    0    0    0    0  0.00000000000E+00  0.00000000000E+00  0.34996269501E-01  0.35000000000E-01  0.51099999109E-03 0.  1.
       11   -1    0    0    0    0 -0.00000000000E+00 -0.00000000000E+00 -0.34996269501E-01  0.35000000000E-01  0.51099999109E-03 0. -1.
       22    1    1    2    0    0  0.56923062954E-02 -0.16052647725E-01  0.30575747279E-01  0.34999516734E-01  0.00000000000E+00 0.  1.
       22    1    1    2    0    0 -0.29686418754E-06  0.17454665080E-07  0.50245956377E-06  0.58386524507E-06  0.00000000000E+00 0.  1.
       22    1    1    2    0    0 -0.56920094312E-02  0.16052630270E-01 -0.30576249739E-01  0.34999899401E-01  0.00000000000E+00 0. -1.
</event>
<event>
 5   0  0.4587701E+07  0.9118800E+02  0.7546771E-02  0.1180000E+00
      -11   -1    0    0    0    0  0.00000000000E+00  0.00000000000E+00  0.34996269501E-01  0.35000000000E-01  0.51099999109E-03 0.  1.
       11   -1    0    0    0    0 -0.00000000000E+00 -0.00000000000E+00 -0.34996269501E-01  0.35000000000E-01  0.51099999109E-03 0. -1.
       22    1    1    2    0    0  0.46313433550E-03 -0.15296436229E-02 -0.25066849536E-01  0.25117747684E-01  0.00000000000E+00 0. -1.
       22    1    1    2    0    0 -0.63303323319E-02  0.73693389485E-02  0.32398843146E-01  0.33824034372E-01  0.00000000000E+00 0.  1.
       22    1    1    2    0    0  0.58671979964E-02 -0.58396953255E-02 -0.73319936097E-02  0.11058217945E-01  0.00000000000E+00 0. -1.
</event>
<event>
 5   0  0.4587701E+07  0.9118800E+02  0.7546771E-02  0.1180000E+00
      -11   -1    0    0    0    0  0.00000000000E+00  0.00000000000E+00  0.34996269501E-01  0.35000000000E-01  0.51099999109E-03 0. -1.
       11   -1    0    0    0    0 -0.00000000000E+00 -0.00000000000E+00 -0.34996269501E-01  0.35000000000E-01  0.51099999109E-03 0.  1.
       22    1    1    2    0    0 -0.33474208045E-04 -0.46192714182E-04 -0.10348235026E-03  0.11816465742E-03  0.00000000000E+00 0. -1.
       22    1    1    2    0    0  0.27422704688E-02  0.35060888214E-02 -0.34608131088E-01  0.34893200535E-01  0.00000000000E+00 0.  1.
       22    1    1    2    0    0 -0.27087962607E-02 -0.34598961073E-02  0.34711613438E-01  0.34988634808E-01  0.00000000000E+00 0. -1.
</event>
<event>
 5   0  0.4587701E+07  0.9118800E+02  0.7546771E-02  0.1180000E+00
      -11   -1    0    0    0    0  0.00000000000E+00  0.00000000000E+00  0.34996269501E-01  0.35000000000E-01  0.51099999109E-03 0.  1.
       11   -1    0    0    0    0 -0.00000000000E+00 -0.00000000000E+00 -0.34996269501E-01  0.35000000000E-01  0.51099999109E-03 0. -1.
       22    1    1    2    0    0 -0.70550868959E-04  0.83207088322E-04  0.15352212243E-04  0.11016594337E-03  0.00000000000E+00 0.  1.
       22    1    1    2    0    0 -0.47604228462E-02 -0.33624169264E-02  0.34446898916E-01  0.34936461157E-01  0.00000000000E+00 0.  1.
       22    1    1    2    0    0  0.48309737151E-02  0.32792098381E-02 -0.34462251128E-01  0.34953372899E-01  0.00000000000E+00 0. -1.
</event>
<event>
 5   0  0.4587701E+07  0.9118800E+02  0.7546771E-02  0.1180000E+00
      -11   -1    0    0    0    0  0.00000000000E+00  0.00000000000E+00  0.34996269501E-01  0.35000000000E-01  0.51099999109E-03 0.  1.
       11   -1    0    0    0    0 -0.00000000000E+00 -0.00000000000E+00 -0.34996269501E-01  0.35000000000E-01  0.51099999109E-03 0. -1.
       22    1    1    2    0    0  0.17153899238E-02 -0.42512198849E-02  0.34686267049E-01  0.34987891547E-01  0.00000000000E+00 0.  1.
       22    1    1    2    0    0 -0.17192481831E-02  0.42429852981E-02 -0.34697181584E-01  0.34997902058E-01  0.00000000000E+00 0. -1.
       22    1    1    2    0    0  0.38582593904E-05  0.82345867631E-05  0.10914535107E-04  0.14206395084E-04  0.00000000000E+00 0.  1.
</event>
<event>
 5   0  0.5088444E+07  0.9118800E+02  0.7546771E-02  0.1180000E+00
      -11   -1    0    0    0    0  0.00000000000E+00  0.00000000000E+00  0.34996269501E-01  0.35000000000E-01  0.51099999109E-03 0.  1.
       11   -1    0    0    0    0 -0.00000000000E+00 -0.00000000000E+00 -0.34996269501E-01  0.35000000000E-01  0.51099999109E-03 0. -1.
       22    1    1    2    0    0  0.13655880768E-08  0.44488881905E-09  0.47935504459E-08  0.50040866034E-08  0.00000000000E+00 0.  1.
       22    1    1    2    0    0 -0.10013200185E-02  0.20765245297E-02  0.34923989778E-01  0.34999995113E-01  0.00000000000E+00 0.  1.
       22    1    1    2    0    0  0.10013186529E-02 -0.20765249746E-02 -0.34923994571E-01  0.34999999883E-01  0.00000000000E+00 0. -1.
</event>
<event>
 5   0  0.4587701E+07  0.9118800E+02  0.7546771E-02  0.1180000E+00
      -11   -1    0    0    0    0  0.00000000000E+00  0.00000000000E+00  0.34996269501E-01  0.35000000000E-01  0.51099999109E-03 0.  1.
       11   -1    0    0    0    0 -0.00000000000E+00 -0.00000000000E+00 -0.34996269501E-01  0.35000000000E-01  0.51099999109E-03 0. -1.
       22    1    1    2    0    0  0.27278582258E-02 -0.16929826722E-02  0.34846591177E-01  0.34994175479E-01  0.00000000000E+00 0.  1.
       22    1    1    2    0    0 -0.27263444425E-02  0.16913439990E-02 -0.34852316726E-01  0.34999679709E-01  0.00000000000E+00 0. -1.
       22    1    1    2    0    0 -0.15137833353E-05  0.16386732509E-05  0.57255496844E-05  0.61448115674E-05  0.00000000000E+00 0.  1.
</event>
<event>
 5   0  0.4587701E+07  0.9118800E+02  0.7546771E-02  0.1180000E+00
      -11   -1    0    0    0    0  0.00000000000E+00  0.00000000000E+00  0.34996269501E-01  0.35000000000E-01  0.51099999109E-03 0. -1.
       11   -1    0    0    0    0 -0.00000000000E+00 -0.00000000000E+00 -0.34996269501E-01  0.35000000000E-01  0.51099999109E-03 0.  1.
       22    1    1    2    0    0  0.71495564860E-02  0.43867169929E-02  0.33979981774E-01  0.34999980076E-01  0.00000000000E+00 0. -1.
       22    1    1    2    0    0 -0.71495703173E-02 -0.43867105584E-02 -0.33979997886E-01  0.34999997737E-01  0.00000000000E+00 0.  1.
       22    1    1    2    0    0  0.13831296895E-07 -0.64345737262E-08  0.16111438888E-07  0.22187541006E-07  0.00000000000E+00 0. -1.
</event>
<event>
 5   0  0.4587701E+07  0.9118800E+02  0.7546771E-02  0.1180000E+00
      -11   -1    0    0    0    0  0.00000000000E+00  0.00000000000E+00  0.34996269501E-01  0.35000000000E-01  0.51099999109E-03 0.  1.
       11   -1    0    0    0    0 -0.00000000000E+00 -0.00000000000E+00 -0.34996269501E-01  0.35000000000E-01  0.51099999109E-03 0. -1.
       22    1    1    2    0    0 -0.16675572663E-03 -0.29365160183E-02 -0.34876196057E-01  0.34999999789E-01  0.00000000000E+00 0. -1.
       22    1    1    2    0    0  0.38278791682E-09 -0.37089569479E-09  0.16618277625E-09  0.55830719214E-09  0.00000000000E+00 0.  1.
       22    1    1    2    0    0  0.16675534384E-03  0.29365163892E-02  0.34876195891E-01  0.34999999653E-01  0.00000000000E+00 0.  1.
</event>
<event>
 5   0  0.4587701E+07  0.9118800E+02  0.7546771E-02  0.1180000E+00
      -11   -1    0    0    0    0  0.00000000000E+00  0.00000000000E+00  0.34996269501E-01  0.35000000000E-01  0.51099999109E-03 0.  1.
       11   -1    0    0    0    0 -0.00000000000E+00 -0.00000000000E+00 -0.34996269501E-01  0.35000000000E-01  0.51099999109E-03 0. -1.
       22    1    1    2    0    0  0.57388117544E-02  0.60349046022E-02 -0.32843721555E-01  0.33883094303E-01  0.00000000000E+00 0. -1.
       22    1    1    2    0    0  0.71255357449E-03  0.27406182229E-03  0.21985213997E-01  0.21998465332E-01  0.00000000000E+00 0.  1.
       22    1    1    2    0    0 -0.64513653289E-02 -0.63089664245E-02  0.10858507559E-01  0.14118440366E-01  0.00000000000E+00 0.  1.
</event>
<event>
 5   0  0.4587701E+07  0.9118800E+02  0.7546771E-02  0.1180000E+00
      -11   -1    0    0    0    0  0.00000000000E+00  0.00000000000E+00  0.34996269501E-01  0.35000000000E-01  0.51099999109E-03 0. -1.
       11   -1    0    0    0    0 -0.00000000000E+00 -0.00000000000E+00 -0.34996269501E-01  0.35000000000E-01  0.51099999109E-03 0.  1.
       22    1    1    2    0    0  0.63709382876E-07 -0.42840979343E-07  0.44647189894E-07  0.88812198165E-07  0.00000000000E+00 0. -1.
       22    1    1    2    0    0  0.37923229656E-02 -0.85240577037E-02 -0.33733611098E-01  0.34999968441E-01  0.00000000000E+00 0.  1.
       22    1    1    2    0    0 -0.37923866750E-02  0.85241005447E-02  0.33733566450E-01  0.34999942746E-01  0.00000000000E+00 0. -1.
</event>
<event>
 5   0  0.4587701E+07  0.9118800E+02  0.7546771E-02  0.1180000E+00
      -11   -1    0    0    0    0  0.00000000000E+00  0.00000000000E+00  0.34996269501E-01  0.35000000000E-01  0.51099999109E-03 0.  1.
       11   -1    0    0    0    0 -0.00000000000E+00 -0.00000000000E+00 -0.34996269501E-01  0.35000000000E-01  0.51099999109E-03 0. -1.
       22    1    1    2    0    0  0.39232038101E-03  0.70133987861E-03 -0.34977177383E-01  0.34986407797E-01  0.00000000000E+00 0. -1.
       22    1    1    2    0    0 -0.60855076260E-04  0.11347219311E-03  0.31561586769E-03  0.34087043705E-03  0.00000000000E+00 0. -1.
       22    1    1    2    0    0 -0.33146530475E-03 -0.81481207172E-03  0.34661561515E-01  0.34672721765E-01  0.00000000000E+00 0.  1.
</event>
<event>
 5   0  0.4587701E+07  0.9118800E+02  0.7546771E-02  0.1180000E+00
      -11   -1    0    0    0    0  0.00000000000E+00  0.00000000000E+00  0.34996269501E-01  0.35000000000E-01  0.51099999109E-03 0. -1.
       11   -1    0    0    0    0 -0.00000000000E+00 -0.00000000000E+00 -0.34996269501E-01  0.35000000000E-01  0.51099999109E-03 0.  1.
       22    1    1    2    0    0 -0.46111873419E-04 -0.73978920299E-03  0.34992120287E-01  0.34999969951E-01  0.00000000000E+00 0. -1.
       22    1    1    2    0    0  0.46118958723E-04  0.73978375571E-03 -0.34992149729E-01  0.34999999281E-01  0.00000000000E+00 0.  1.
       22    1    1    2    0    0 -0.70853040742E-08  0.54472729302E-08  0.29442362121E-07  0.30768929189E-07  0.00000000000E+00 0.  1.
</event>
<event>
 5   0  0.4587701E+07  0.9118800E+02  0.7546771E-02  0.1180000E+00
      -11   -1    0    0    0    0  0.00000000000E+00  0.00000000000E+00  0.34996269501E-01  0.35000000000E-01  0.51099999109E-03 0.  1.
       11   -1    0    0    0    0 -0.00000000000E+00 -0.00000000000E+00 -0.34996269501E-01  0.35000000000E-01  0.51099999109E-03 0. -1.
       22    1    1    2    0    0  0.44122386879E-03  0.81357383730E-03 -0.34987543014E-01  0.34999782100E-01  0.00000000000E+00 0. -1.
       22    1    1    2    0    0 -0.43438722141E-03 -0.82017236572E-03  0.34845352517E-01  0.34857710294E-01  0.00000000000E+00 0.  1.
       22    1    1    2    0    0 -0.68366473741E-05  0.65985284172E-05  0.14219049699E-03  0.14250760597E-03  0.00000000000E+00 0. -1.
</event>
<event>
 5   0  0.4587701E+07  0.9118800E+02  0.7546771E-02  0.1180000E+00
      -11   -1    0    0    0    0  0.00000000000E+00  0.00000000000E+00  0.34996269501E-01  0.35000000000E-01  0.51099999109E-03 0. -1.
       11   -1    0    0    0    0 -0.00000000000E+00 -0.00000000000E+00 -0.34996269501E-01  0.35000000000E-01  0.51099999109E-03 0.  1.
       22    1    1    2    0    0 -0.10905386082E-02 -0.52478365635E-03  0.34887483316E-01  0.34908468377E-01  0.00000000000E+00 0. -1.
       22    1    1    2    0    0 -0.10418365913E-05  0.36560577977E-05  0.91530680802E-04  0.91609593986E-04  0.00000000000E+00 0. -1.
       22    1    1    2    0    0  0.10915804448E-02  0.52112759855E-03 -0.34979013997E-01  0.34999922029E-01  0.00000000000E+00 0.  1.
</event>
<event>
 5   0  0.4587701E+07  0.9118800E+02  0.7546771E-02  0.1180000E+00
      -11   -1    0    0    0    0  0.00000000000E+00  0.00000000000E+00  0.34996269501E-01  0.35000000000E-01  0.51099999109E-03 0.  1.
       11   -1    0    0    0    0 -0.00000000000E+00 -0.00000000000E+00 -0.34996269501E-01  0.35000000000E-01  0.51099999109E-03 0. -1.
       22    1    1    2    0    0 -0.11143325644E-03  0.49511005250E-03 -0.12476883552E-02  0.13469512116E-02  0.00000000000E+00 0.  1.
       22    1    1    2    0    0 -0.93194281483E-02 -0.12876835373E-01 -0.29883428341E-01  0.33847952961E-01  0.00000000000E+00 0. -1.
       22    1    1    2    0    0  0.94308614047E-02  0.12381725321E-01  0.31131116697E-01  0.34805095827E-01  0.00000000000E+00 0.  1.
</event>
<event>
 5   0  0.4587701E+07  0.9118800E+02  0.7546771E-02  0.1180000E+00
      -11   -1    0    0    0    0  0.00000000000E+00  0.00000000000E+00  0.34996269501E-01  0.35000000000E-01  0.51099999109E-03 0.  1.
       11   -1    0    0    0    0 -0.00000000000E+00 -0.00000000000E+00 -0.34996269501E-01  0.35000000000E-01  0.51099999109E-03 0. -1.
       22    1    1    2    0    0  0.75553082066E-03 -0.47630907225E-02 -0.34661535156E-01  0.34995426550E-01  0.00000000000E+00 0. -1.
       22    1    1    2    0    0 -0.11760639709E-03  0.79398089746E-04  0.59669553362E-03  0.61333586324E-03  0.00000000000E+00 0. -1.
       22    1    1    2    0    0 -0.63792442357E-03  0.46836926328E-02  0.34064839622E-01  0.34391237587E-01  0.00000000000E+00 0.  1.
</event>
<event>
 5   0  0.4587701E+07  0.9118800E+02  0.7546771E-02  0.1180000E+00
      -11   -1    0    0    0    0  0.00000000000E+00  0.00000000000E+00  0.34996269501E-01  0.35000000000E-01  0.51099999109E-03 0.  1.
       11   -1    0    0    0    0 -0.00000000000E+00 -0.00000000000E+00 -0.34996269501E-01  0.35000000000E-01  0.51099999109E-03 0. -1.
       22    1    1    2    0    0  0.10870645536E-02  0.61433394490E-03 -0.34297497126E-01  0.34320218890E-01  0.00000000000E+00 0. -1.
       22    1    1    2    0    0 -0.21274989509E-04  0.39240021109E-03 -0.61862661238E-03  0.73289114907E-03  0.00000000000E+00 0. -1.
       22    1    1    2    0    0 -0.10657895640E-02 -0.10067341560E-02  0.34916123738E-01  0.34946889961E-01  0.00000000000E+00 0.  1.
</event>
<event>
 5   0  0.4587701E+07  0.9118800E+02  0.7546771E-02  0.1180000E+00
      -11   -1    0    0    0    0  0.00000000000E+00  0.00000000000E+00  0.34996269501E-01  0.35000000000E-01  0.51099999109E-03 0.  1.
       11   -1    0    0    0    0 -0.00000000000E+00 -0.00000000000E+00 -0.34996269501E-01  0.35000000000E-01  0.51099999109E-03 0. -1.
       22    1    1    2    0    0  0.21845306429E-02 -0.16651520610E-03 -0.17609580761E-01  0.17745344066E-01  0.00000000000E+00 0. -1.
       22    1    1    2    0    0 -0.22295251680E-02 -0.48598196684E-03  0.34888659875E-01  0.34963202782E-01  0.00000000000E+00 0.  1.
       22    1    1    2    0    0  0.44994525096E-04  0.65249717293E-03 -0.17279079114E-01  0.17291453152E-01  0.00000000000E+00 0. -1.
</event>
<event>
 5   0  0.4587701E+07  0.9118800E+02  0.7546771E-02  0.1180000E+00
      -11   -1    0    0    0    0  0.00000000000E+00  0.00000000000E+00  0.34996269501E-01  0.35000000000E-01  0.51099999109E-03 0. -1.
       11   -1    0    0    0    0 -0.00000000000E+00 -0.00000000000E+00 -0.34996269501E-01  0.35000000000E-01  0.51099999109E-03 0.  1.
       22    1    1    2    0    0 -0.86586714654E-08 -0.13702570767E-09  0.32530966594E-07  0.33663855321E-07  0.00000000000E+00 0. -1.
       22    1    1    2    0    0 -0.10532995886E-03  0.38900165463E-03  0.34997646574E-01  0.34999966891E-01  0.00000000000E+00 0. -1.
       22    1    1    2    0    0  0.10533861754E-03 -0.38900151760E-03 -0.34997679105E-01  0.34999999445E-01  0.00000000000E+00 0.  1.
</event>
<event>
 5   0  0.4587701E+07  0.9118800E+02  0.7546771E-02  0.1180000E+00
      -11   -1    0    0    0    0  0.00000000000E+00  0.00000000000E+00  0.34996269501E-01  0.35000000000E-01  0.51099999109E-03 0. -1.
       11   -1    0    0    0    0 -0.00000000000E+00 -0.00000000000E+00 -0.34996269501E-01  0.35000000000E-01  0.51099999109E-03 0.  1.
       22    1    1    2    0    0 -0.14665372798E-02  0.71853785982E-04  0.30370650928E-01  0.30406123270E-01  0.00000000000E+00 0. -1.
       22    1    1    2    0    0  0.96679735222E-03  0.48358274544E-03 -0.34943587363E-01  0.34960303877E-01  0.00000000000E+00 0.  1.
       22    1    1    2    0    0  0.49973992759E-03 -0.55543653143E-03  0.45729364354E-02  0.46335728524E-02  0.00000000000E+00 0. -1.
</event>
<event>
 5   0  0.4587701E+07  0.9118800E+02  0.7546771E-02  0.1180000E+00
      -11   -1    0    0    0    0  0.00000000000E+00  0.00000000000E+00  0.34996269501E-01  0.35000000000E-01  0.51099999109E-03 0.  1.
       11   -1    0    0    0    0 -0.00000000000E+00 -0.00000000000E+00 -0.34996269501E-01  0.35000000000E-01  0.51099999109E-03 0.  1.
       22    1    1    2    0    0 -0.89177063782E-08  0.17261301682E-08  0.82680791087E-08  0.12282758019E-07  0.00000000000E+00 0.  1.
       22    1    1    2    0    0  0.40460394113E-05 -0.55992269339E-03 -0.34995518723E-01  0.34999998006E-01  0.00000000000E+00 0.  1.
       22    1    1    2    0    0 -0.40371217049E-05  0.55992096726E-03  0.34995510454E-01  0.34999989711E-01  0.00000000000E+00 0.  1.
</event>
<event>
 5   0  0.4587701E+07  0.9118800E+02  0.7546771E-02  0.1180000E+00
      -11   -1    0    0    0    0  0.00000000000E+00  0.00000000000E+00  0.34996269501E-01  0.35000000000E-01  0.51099999109E-03 0. -1.
       11   -1    0    0    0    0 -0.00000000000E+00 -0.00000000000E+00 -0.34996269501E-01  0.35000000000E-01  0.51099999109E-03 0.  1.
       22    1    1    2    0    0  0.12052402329E-07  0.14530354838E-08  0.22866664253E-06  0.22898865718E-06  0.00000000000E+00 0.  1.
       22    1    1    2    0    0 -0.90726105930E-03 -0.31714831954E-03 -0.34986801675E-01  0.34999999959E-01  0.00000000000E+00 0.  1.
       22    1    1    2    0    0  0.90724900690E-03  0.31714686651E-03  0.34986573008E-01  0.34999771053E-01  0.00000000000E+00 0. -1.
</event>
<event>
 5   0  0.4587701E+07  0.9118800E+02  0.7546771E-02  0.1180000E+00
      -11   -1    0    0    0    0  0.00000000000E+00  0.00000000000E+00  0.34996269501E-01  0.35000000000E-01  0.51099999109E-03 0.  1.
       11   -1    0    0    0    0 -0.00000000000E+00 -0.00000000000E+00 -0.34996269501E-01  0.35000000000E-01  0.51099999109E-03 0. -1.
       22    1    1    2    0    0  0.26783717092E-03 -0.16878359773E-03  0.11808755926E-02  0.12225758947E-02  0.00000000000E+00 0. -1.
       22    1    1    2    0    0  0.23803470926E-02  0.35757489158E-02  0.33527641328E-01  0.33801697674E-01  0.00000000000E+00 0.  1.
       22    1    1    2    0    0 -0.26481842635E-02 -0.34069653181E-02 -0.34708516921E-01  0.34975726432E-01  0.00000000000E+00 0. -1.
</event>
