<event>
 5   0  0.1091468E+08  0.9118800E+02  0.7546771E-02  0.1180000E+00
      -11   -1    0    0    0    0  0.00000000000E+00  0.00000000000E+00  0.34996269501E-01  0.35000000000E-01  0.51099999109E-03 0. -1.
       11   -1    0    0    0    0 -0.00000000000E+00 -0.00000000000E+00 -0.34996269501E-01  0.35000000000E-01  0.51099999109E-03 0.  1.
       22    1    1    2    0    0 -0.11043710648E-02 -0.22951490208E-02  0.11989060041E-02  0.28150879353E-02  0.00000000000E+00 0. -1.
       22    1    1    2    0    0 -0.21530086474E-01  0.59282447602E-02  0.24228020785E-01  0.32949745077E-01  0.00000000000E+00 0. -1.
       22    1    1    2    0    0  0.22634457539E-01 -0.36330957394E-02 -0.25426926789E-01  0.34235166987E-01  0.00000000000E+00 0.  1.
</event>
<event>
 5   0  0.1091468E+08  0.9118800E+02  0.7546771E-02  0.1180000E+00
      -11   -1    0    0    0    0  0.00000000000E+00  0.00000000000E+00  0.34996269501E-01  0.35000000000E-01  0.51099999109E-03 0.  1.
       11   -1    0    0    0    0 -0.00000000000E+00 -0.00000000000E+00 -0.34996269501E-01  0.35000000000E-01  0.51099999109E-03 0. -1.
       22    1    1    2    0    0 -0.11749435549E-01 -0.18403818472E-02  0.32885586478E-01  0.34969959094E-01  0.00000000000E+00 0.  1.
       22    1    1    2    0    0  0.11753324221E-01  0.18418706395E-02 -0.32915688433E-01  0.34999652323E-01  0.00000000000E+00 0. -1.
       22    1    1    2    0    0 -0.38886717800E-05 -0.14887922641E-05  0.30101955003E-04  0.30388582817E-04  0.00000000000E+00 0.  1.
</event>
<event>
 5   0  0.1196013E+08  0.9118800E+02  0.7546771E-02  0.1180000E+00
      -11   -1    0    0    0    0  0.00000000000E+00  0.00000000000E+00  0.34996269501E-01  0.35000000000E-01  0.51099999109E-03 0. -1.
       11   -1    0    0    0    0 -0.00000000000E+00 -0.00000000000E+00 -0.34996269501E-01  0.35000000000E-01  0.51099999109E-03 0.  1.
       22    1    1    2    0    0 -0.23708029789E-08 -0.27772246003E-09  0.96690585431E-08  0.99593438357E-08  0.00000000000E+00 0.  1.
       22    1    1    2    0    0 -0.23996260117E-02 -0.23395649982E-02  0.34839166736E-01  0.34999990117E-01  0.00000000000E+00 0. -1.
       22    1    1    2    0    0  0.23996283825E-02  0.23395652759E-02 -0.34839176405E-01  0.34999999923E-01  0.00000000000E+00 0.  1.
</event>
<event>
 5   0  0.1091468E+08  0.9118800E+02  0.7546771E-02  0.1180000E+00
      -11   -1    0    0    0    0  0.00000000000E+00  0.00000000000E+00  0.34996269501E-01  0.35000000000E-01  0.51099999109E-03 0. -1.
       11   -1    0    0    0    0 -0.00000000000E+00 -0.00000000000E+00 -0.34996269501E-01  0.35000000000E-01  0.51099999109E-03 0.  1.
       22    1    1    2    0    0  0.12755945433E-01 -0.46219795171E-02 -0.32007252686E-01  0.34764077193E-01  0.00000000000E+00 0.  1.
       22    1    1    2    0    0 -0.46604207960E-04 -0.42045129717E-04  0.52348137120E-02  0.52351900008E-02  0.00000000000E+00 0.  1.
       22    1    1    2    0    0 -0.12709341225E-01  0.46640246468E-02  0.26772438974E-01  0.30000732806E-01  0.00000000000E+00 0. -1.
</event>
<event>
 5   0  0.1091468E+08  0.9118800E+02  0.7546771E-02  0.1180000E+00
      -11   -1    0    0    0    0  0.00000000000E+00  0.00000000000E+00  0.34996269501E-01  0.35000000000E-01  0.51099999109E-03 0.  1.
       11   -1    0    0    0    0 -0.00000000000E+00 -0.00000000000E+00 -0.34996269501E-01  0.35000000000E-01  0.51099999109E-03 0. -1.
       22    1    1    2    0    0  0.17626350429E-05 -0.23080093673E-05  0.22875715020E-03  0.22877558340E-03  0.00000000000E+00 0. -1.
       22    1    1    2    0    0 -0.18609938714E-02 -0.18714902148E-02 -0.34899994045E-01  0.34999647972E-01  0.00000000000E+00 0. -1.
       22    1    1    2    0    0  0.18592312364E-02  0.18737982241E-02  0.34671236895E-01  0.34771576444E-01  0.00000000000E+00 0.  1.
</event>
<event>
 5   0  0.1091468E+08  0.9118800E+02  0.7546771E-02  0.1180000E+00
      -11   -1    0    0    0    0  0.00000000000E+00  0.00000000000E+00  0.34996269501E-01  0.35000000000E-01  0.51099999109E-03 0.  1.
       11   -1    0    0    0    0 -0.00000000000E+00 -0.00000000000E+00 -0.34996269501E-01  0.35000000000E-01  0.51099999109E-03 0.  1.
       22    1    1    2    0    0 -0.18772985990E-02 -0.19198338535E-02 -0.34386683476E-01  0.34491361419E-01  0.00000000000E+00 0.  1.
       22    1    1    2    0    0  0.18772985990E-02  0.19198338535E-02  0.26423611850E-02  0.37672383369E-02  0.00000000000E+00 0. -1.
       22    1    1    2    0    0 -0.00000000000E+00  0.00000000000E+00  0.31744322291E-01  0.31741400244E-01  0.00000000000E+00 0.  1.
</event>
<event>
 5   0  0.1091468E+08  0.9118800E+02  0.7546771E-02  0.1180000E+00
      -11   -1    0    0    0    0  0.00000000000E+00  0.00000000000E+00  0.34996269501E-01  0.35000000000E-01  0.51099999109E-03 0. -1.
       11   -1    0    0    0    0 -0.00000000000E+00 -0.00000000000E+00 -0.34996269501E-01  0.35000000000E-01  0.51099999109E-03 0.  1.
       22    1    1    2    0    0  0.61231138046E-02  0.92194307826E-02 -0.32789689418E-01  0.34607140286E-01  0.00000000000E+00 0.  1.
       22    1    1    2    0    0 -0.67114721790E-02 -0.97528368450E-02  0.26141210634E-01  0.28697117952E-01  0.00000000000E+00 0. -1.
       22    1    1    2    0    0  0.58835837440E-03  0.53340606236E-03  0.66484787845E-02  0.66957417626E-02  0.00000000000E+00 0.  1.
</event>
<event>
 5   0  0.1091468E+08  0.9118800E+02  0.7546771E-02  0.1180000E+00
      -11   -1    0    0    0    0  0.00000000000E+00  0.00000000000E+00  0.34996269501E-01  0.35000000000E-01  0.51099999109E-03 0. -1.
       11   -1    0    0    0    0 -0.00000000000E+00 -0.00000000000E+00 -0.34996269501E-01  0.35000000000E-01  0.51099999109E-03 0.  1.
       22    1    1    2    0    0 -0.24381717252E-01  0.43872330135E-02  0.21976718111E-01  0.33116341715E-01  0.00000000000E+00 0. -1.
       22    1    1    2    0    0  0.24241389981E-01 -0.47195437466E-02 -0.13017680865E-01  0.27917361918E-01  0.00000000000E+00 0.  1.
       22    1    1    2    0    0  0.14032727140E-03  0.33231073310E-03 -0.89590372453E-02  0.89662963663E-02  0.00000000000E+00 0. -1.
</event>
<event>
 5   0  0.1091468E+08  0.9118800E+02  0.7546771E-02  0.1180000E+00
      -11   -1    0    0    0    0  0.00000000000E+00  0.00000000000E+00  0.34996269501E-01  0.35000000000E-01  0.51099999109E-03 0. -1.
       11   -1    0    0    0    0 -0.00000000000E+00 -0.00000000000E+00 -0.34996269501E-01  0.35000000000E-01  0.51099999109E-03 0.  1.
       22    1    1    2    0    0  0.28714371597E-02 -0.79395341552E-02  0.33966405378E-01  0.34999972118E-01  0.00000000000E+00 0. -1.
       22    1    1    2    0    0  0.90908223144E-08  0.27504099370E-08  0.27426785483E-07  0.29024754385E-07  0.00000000000E+00 0.  1.
       22    1    1    2    0    0 -0.28714462506E-02  0.79395314048E-02 -0.33966432805E-01  0.34999998857E-01  0.00000000000E+00 0.  1.
</event>
<event>
 5   0  0.1091468E+08  0.9118800E+02  0.7546771E-02  0.1180000E+00
      -11   -1    0    0    0    0  0.00000000000E+00  0.00000000000E+00  0.34996269501E-01  0.35000000000E-01  0.51099999109E-03 0.  1.
       11   -1    0    0    0    0 -0.00000000000E+00 -0.00000000000E+00 -0.34996269501E-01  0.35000000000E-01  0.51099999109E-03 0. -1.
       22    1    1    2    0    0 -0.68373051899E-03  0.65668134873E-02 -0.34361788752E-01  0.34990327993E-01  0.00000000000E+00 0. -1.
       22    1    1    2    0    0 -0.13341173519E-04 -0.22614300627E-04  0.31882525882E-05  0.26449167440E-04  0.00000000000E+00 0. -1.
       22    1    1    2    0    0  0.69707169251E-03 -0.65441991867E-02  0.34358600500E-01  0.34983222840E-01  0.00000000000E+00 0.  1.
</event>
<event>
 5   0  0.1091468E+08  0.9118800E+02  0.7546771E-02  0.1180000E+00
      -11   -1    0    0    0    0  0.00000000000E+00  0.00000000000E+00  0.34996269501E-01  0.35000000000E-01  0.51099999109E-03 0.  1.
       11   -1    0    0    0    0 -0.00000000000E+00 -0.00000000000E+00 -0.34996269501E-01  0.35000000000E-01  0.51099999109E-03 0.  1.
       22    1    1    2    0    0 -0.00000000000E+00 -0.00000000000E+00  0.34984076871E-01  0.34983656497E-01  0.00000000000E+00 0.  1.
       22    1    1    2    0    0  0.52838467213E-04 -0.39559802680E-04 -0.34932534537E-01  0.34932596899E-01  0.00000000000E+00 0.  1.
       22    1    1    2    0    0 -0.52838467213E-04  0.39559802680E-04 -0.51542333390E-04  0.83746604330E-04  0.00000000000E+00 0. -1.
</event>
