<event>
 5   0  0.2375103E+08  0.9118800E+02  0.7546771E-02  0.1180000E+00
      -11   -1    0    0    0    0  0.00000000000E+00  0.00000000000E+00  0.34996269501E-01  0.35000000000E-01  0.51099999109E-03 0. -1.
       11   -1    0    0    0    0 -0.00000000000E+00 -0.00000000000E+00 -0.34996269501E-01  0.35000000000E-01  0.51099999109E-03 0.  1.
       22    1    1    2    0    0 -0.89415848288E-02 -0.17691739189E-02 -0.33791161118E-01  0.34998921202E-01  0.00000000000E+00 0.  1.
       22    1    1    2    0    0 -0.24750763716E-05  0.18080021148E-05  0.43657544078E-04  0.43765009192E-04  0.00000000000E+00 0. -1.
       22    1    1    2    0    0  0.89440599052E-02  0.17673659168E-02  0.33747503574E-01  0.34957313789E-01  0.00000000000E+00 0. -1.
</event>
<event>
 5   0  0.2375103E+08  0.9118800E+02  0.7546771E-02  0.1180000E+00
      -11   -1    0    0    0    0  0.00000000000E+00  0.00000000000E+00  0.34996269501E-01  0.35000000000E-01  0.51099999109E-03 0. -1.
       11   -1    0    0    0    0 -0.00000000000E+00 -0.00000000000E+00 -0.34996269501E-01  0.35000000000E-01  0.51099999109E-03 0.  1.
       22    1    1    2    0    0  0.10437090145E-01 -0.11712352367E-01  0.31222579212E-01  0.34942259534E-01  0.00000000000E+00 0. -1.
       22    1    1    2    0    0 -0.34604433250E-04 -0.40293418254E-04 -0.10122796055E-02  0.10136720506E-02  0.00000000000E+00 0.  1.
       22    1    1    2    0    0 -0.10402485712E-01  0.11752645785E-01 -0.30210299607E-01  0.34044068415E-01  0.00000000000E+00 0.  1.
</event>
<event>
 5   0  0.2375103E+08  0.9118800E+02  0.7546771E-02  0.1180000E+00
      -11   -1    0    0    0    0  0.00000000000E+00  0.00000000000E+00  0.34996269501E-01  0.35000000000E-01  0.51099999109E-03 0. -1.
       11   -1    0    0    0    0 -0.00000000000E+00 -0.00000000000E+00 -0.34996269501E-01  0.35000000000E-01  0.51099999109E-03 0.  1.
       22    1    1    2    0    0 -0.71637092906E-03 -0.16808572125E-02 -0.34952273075E-01  0.34999998020E-01  0.00000000000E+00 0.  1.
       22    1    1    2    0    0  0.71637494309E-03  0.16808511992E-02  0.34952268875E-01  0.34999993619E-01  0.00000000000E+00 0. -1.
       22    1    1    2    0    0 -0.40140296471E-08  0.60133470802E-08  0.41999677726E-08  0.83613698881E-08  0.00000000000E+00 0. -1.
</event>
<event>
 5   0  0.2375103E+08  0.9118800E+02  0.7546771E-02  0.1180000E+00
      -11   -1    0    0    0    0  0.00000000000E+00  0.00000000000E+00  0.34996269501E-01  0.35000000000E-01  0.51099999109E-03 0. -1.
       11   -1    0    0    0    0 -0.00000000000E+00 -0.00000000000E+00 -0.34996269501E-01  0.35000000000E-01  0.51099999109E-03 0.  1.
       22    1    1    2    0    0 -0.85741314453E-04 -0.24788487187E-04 -0.87015676936E-03  0.87472215323E-03  0.00000000000E+00 0. -1.
       22    1    1    2    0    0 -0.99773564713E-02 -0.16254429992E-01 -0.28366227545E-01  0.34181822679E-01  0.00000000000E+00 0.  1.
       22    1    1    2    0    0  0.10063097786E-01  0.16279218479E-01  0.29236384314E-01  0.34943455168E-01  0.00000000000E+00 0. -1.
</event>
<event>
 5   0  0.2375103E+08  0.9118800E+02  0.7546771E-02  0.1180000E+00
      -11   -1    0    0    0    0  0.00000000000E+00  0.00000000000E+00  0.34996269501E-01  0.35000000000E-01  0.51099999109E-03 0. -1.
       11   -1    0    0    0    0 -0.00000000000E+00 -0.00000000000E+00 -0.34996269501E-01  0.35000000000E-01  0.51099999109E-03 0.  1.
       22    1    1    2    0    0 -0.37808479428E-02 -0.41197927463E-02  0.34541957279E-01  0.34991632087E-01  0.00000000000E+00 0. -1.
       22    1    1    2    0    0  0.20772258757E-05 -0.24442051579E-05  0.80814433746E-05  0.86947532001E-05  0.00000000000E+00 0.  1.
       22    1    1    2    0    0  0.37787707169E-02  0.41222369514E-02 -0.34550038722E-01  0.34999673160E-01  0.00000000000E+00 0.  1.
</event>
