<event>
 5   0  0.1118918E+07  0.9118800E+02  0.7546771E-02  0.1180000E+00
      -11   -1    0    0    0    0  0.00000000000E+00  0.00000000000E+00  0.34996269501E-01  0.35000000000E-01  0.51099999109E-03 0.  1.
       11   -1    0    0    0    0 -0.00000000000E+00 -0.00000000000E+00 -0.34996269501E-01  0.35000000000E-01  0.51099999109E-03 0.  1.
       22    1    1    2    0    0 -0.11260037276E-02  0.97966773505E-03 -0.28748145258E-01  0.28786863133E-01  0.00000000000E+00 0.  1.
       22    1    1    2    0    0 -0.00000000000E+00  0.00000000000E+00  0.34891344916E-01  0.34891227717E-01  0.00000000000E+00 0.  1.
       22    1    1    2    0    0  0.11260037276E-02 -0.97966773505E-03 -0.61431996585E-02  0.63219091508E-02  0.00000000000E+00 0. -1.
</event>
<event>
 5   0  0.1118918E+07  0.9118800E+02  0.7546771E-02  0.1180000E+00
      -11   -1    0    0    0    0  0.00000000000E+00  0.00000000000E+00  0.34996269501E-01  0.35000000000E-01  0.51099999109E-03 0. -1.
       11   -1    0    0    0    0 -0.00000000000E+00 -0.00000000000E+00 -0.34996269501E-01  0.35000000000E-01  0.51099999109E-03 0.  1.
       22    1    1    2    0    0  0.65372526656E-03 -0.44744910225E-02  0.24647964196E-01  0.25059340886E-01  0.00000000000E+00 0. -1.
       22    1    1    2    0    0 -0.35527061338E-02 -0.19438339538E-02 -0.33435145869E-01  0.33679506983E-01  0.00000000000E+00 0.  1.
       22    1    1    2    0    0  0.28989808672E-02  0.64183249763E-02  0.87871816736E-02  0.11261152132E-01  0.00000000000E+00 0. -1.
</event>
<event>
 5   0  0.1118918E+07  0.9118800E+02  0.7546771E-02  0.1180000E+00
      -11   -1    0    0    0    0  0.00000000000E+00  0.00000000000E+00  0.34996269501E-01  0.35000000000E-01  0.51099999109E-03 0.  1.
       11   -1    0    0    0    0 -0.00000000000E+00 -0.00000000000E+00 -0.34996269501E-01  0.35000000000E-01  0.51099999109E-03 0.  1.
       22    1    1    2    0    0  0.19022253047E-05 -0.69415038330E-05  0.16033827466E-04  0.17575168841E-04  0.00000000000E+00 0.  1.
       22    1    1    2    0    0 -0.19023435828E-05  0.69419354475E-05  0.34983814821E-01  0.34983195730E-01  0.00000000000E+00 0.  1.
       22    1    1    2    0    0  0.11827812742E-09 -0.43161452686E-09 -0.34999848648E-01  0.34999229101E-01  0.00000000000E+00 0.  1.
</event>
<event>
 5   0  0.1118918E+07  0.9118800E+02  0.7546771E-02  0.1180000E+00
      -11   -1    0    0    0    0  0.00000000000E+00  0.00000000000E+00  0.34996269501E-01  0.35000000000E-01  0.51099999109E-03 0. -1.
       11   -1    0    0    0    0 -0.00000000000E+00 -0.00000000000E+00 -0.34996269501E-01  0.35000000000E-01  0.51099999109E-03 0.  1.
       22    1    1    2    0    0 -0.70448390111E-04  0.22719435682E-02 -0.15155594923E-02  0.27319610406E-02  0.00000000000E+00 0.  1.
       22    1    1    2    0    0 -0.56337375566E-03 -0.14933380067E-02  0.34365608143E-01  0.34402652099E-01  0.00000000000E+00 0. -1.
       22    1    1    2    0    0  0.63382214577E-03 -0.77860556148E-03 -0.32850048651E-01  0.32865386861E-01  0.00000000000E+00 0.  1.
</event>
<event>
 5   0  0.1118918E+07  0.9118800E+02  0.7546771E-02  0.1180000E+00
      -11   -1    0    0    0    0  0.00000000000E+00  0.00000000000E+00  0.34996269501E-01  0.35000000000E-01  0.51099999109E-03 0. -1.
       11   -1    0    0    0    0 -0.00000000000E+00 -0.00000000000E+00 -0.34996269501E-01  0.35000000000E-01  0.51099999109E-03 0.  1.
       22    1    1    2    0    0 -0.35740828645E-04  0.16281903343E-04  0.34776210098E-03  0.34997283621E-03  0.00000000000E+00 0. -1.
       22    1    1    2    0    0 -0.29286543755E-03  0.13992062796E-02  0.34621292760E-01  0.34650793076E-01  0.00000000000E+00 0. -1.
       22    1    1    2    0    0  0.32860626620E-03 -0.14154881830E-02 -0.34969054861E-01  0.34999234088E-01  0.00000000000E+00 0.  1.
</event>
<event>
 5   0  0.1118918E+07  0.9118800E+02  0.7546771E-02  0.1180000E+00
      -11   -1    0    0    0    0  0.00000000000E+00  0.00000000000E+00  0.34996269501E-01  0.35000000000E-01  0.51099999109E-03 0. -1.
       11   -1    0    0    0    0 -0.00000000000E+00 -0.00000000000E+00 -0.34996269501E-01  0.35000000000E-01  0.51099999109E-03 0.  1.
       22    1    1    2    0    0  0.77028232603E-02  0.55629182022E-02  0.33684622051E-01  0.34999047241E-01  0.00000000000E+00 0. -1.
       22    1    1    2    0    0 -0.49010728665E-06 -0.30291663846E-06  0.96985616253E-06  0.11280889230E-05  0.00000000000E+00 0. -1.
       22    1    1    2    0    0 -0.77023331530E-02 -0.55626152855E-02 -0.33685591907E-01  0.34999824670E-01  0.00000000000E+00 0.  1.
</event>
<event>
 5   0  0.1118918E+07  0.9118800E+02  0.7546771E-02  0.1180000E+00
      -11   -1    0    0    0    0  0.00000000000E+00  0.00000000000E+00  0.34996269501E-01  0.35000000000E-01  0.51099999109E-03 0.  1.
       11   -1    0    0    0    0 -0.00000000000E+00 -0.00000000000E+00 -0.34996269501E-01  0.35000000000E-01  0.51099999109E-03 0. -1.
       22    1    1    2    0    0 -0.20790409858E-02 -0.39290063788E-02 -0.30878078839E-01  0.31196398115E-01  0.00000000000E+00 0. -1.
       22    1    1    2    0    0 -0.23552845981E-04  0.32018285715E-03 -0.38308498903E-02  0.38442792147E-02  0.00000000000E+00 0. -1.
       22    1    1    2    0    0  0.21025938318E-02  0.36088235217E-02  0.34708928729E-01  0.34959322670E-01  0.00000000000E+00 0.  1.
</event>
<event>
 5   0  0.1118918E+07  0.9118800E+02  0.7546771E-02  0.1180000E+00
      -11   -1    0    0    0    0  0.00000000000E+00  0.00000000000E+00  0.34996269501E-01  0.35000000000E-01  0.51099999109E-03 0.  1.
       11   -1    0    0    0    0 -0.00000000000E+00 -0.00000000000E+00 -0.34996269501E-01  0.35000000000E-01  0.51099999109E-03 0. -1.
       22    1    1    2    0    0  0.83561866841E-02  0.31721458394E-01 -0.10574981910E-01  0.34466027055E-01  0.00000000000E+00 0. -1.
       22    1    1    2    0    0  0.74129092981E-04 -0.69338380267E-04 -0.84020789968E-03  0.84631687216E-03  0.00000000000E+00 0.  1.
       22    1    1    2    0    0 -0.84303157771E-02 -0.31652120014E-01  0.11415189810E-01  0.34687656073E-01  0.00000000000E+00 0.  1.
</event>
<event>
 5   0  0.1118918E+07  0.9118800E+02  0.7546771E-02  0.1180000E+00
      -11   -1    0    0    0    0  0.00000000000E+00  0.00000000000E+00  0.34996269501E-01  0.35000000000E-01  0.51099999109E-03 0.  1.
       11   -1    0    0    0    0 -0.00000000000E+00 -0.00000000000E+00 -0.34996269501E-01  0.35000000000E-01  0.51099999109E-03 0. -1.
       22    1    1    2    0    0 -0.41468754627E-02  0.10872600371E-02  0.34587816921E-01  0.34852486136E-01  0.00000000000E+00 0.  1.
       22    1    1    2    0    0 -0.55147811933E-04  0.22221304020E-03  0.47361792059E-04  0.23380131681E-03  0.00000000000E+00 0. -1.
       22    1    1    2    0    0  0.42020232746E-02 -0.13094730773E-02 -0.34635178713E-01  0.34913712547E-01  0.00000000000E+00 0. -1.
</event>
<event>
 5   0  0.1118918E+07  0.9118800E+02  0.7546771E-02  0.1180000E+00
      -11   -1    0    0    0    0  0.00000000000E+00  0.00000000000E+00  0.34996269501E-01  0.35000000000E-01  0.51099999109E-03 0.  1.
       11   -1    0    0    0    0 -0.00000000000E+00 -0.00000000000E+00 -0.34996269501E-01  0.35000000000E-01  0.51099999109E-03 0. -1.
       22    1    1    2    0    0  0.14926293262E-03  0.10062752635E-03 -0.67406599865E-04  0.19222115341E-03  0.00000000000E+00 0. -1.
       22    1    1    2    0    0 -0.21675308725E-02  0.19400741508E-02  0.34817774744E-01  0.34939082929E-01  0.00000000000E+00 0.  1.
       22    1    1    2    0    0  0.20182679399E-02 -0.20407016771E-02 -0.34750368144E-01  0.34868695917E-01  0.00000000000E+00 0. -1.
</event>
<event>
 5   0  0.1118918E+07  0.9118800E+02  0.7546771E-02  0.1180000E+00
      -11   -1    0    0    0    0  0.00000000000E+00  0.00000000000E+00  0.34996269501E-01  0.35000000000E-01  0.51099999109E-03 0. -1.
       11   -1    0    0    0    0 -0.00000000000E+00 -0.00000000000E+00 -0.34996269501E-01  0.35000000000E-01  0.51099999109E-03 0.  1.
       22    1    1    2    0    0 -0.11233903044E-01  0.18843873278E-01  0.27240669601E-01  0.34976366564E-01  0.00000000000E+00 0. -1.
       22    1    1    2    0    0  0.11239571999E-01 -0.18828904506E-01 -0.27002468344E-01  0.34784895002E-01  0.00000000000E+00 0.  1.
       22    1    1    2    0    0 -0.56689553926E-05 -0.14968771458E-04 -0.23820125717E-03  0.23873843447E-03  0.00000000000E+00 0. -1.
</event>
<event>
 5   0  0.1118918E+07  0.9118800E+02  0.7546771E-02  0.1180000E+00
      -11   -1    0    0    0    0  0.00000000000E+00  0.00000000000E+00  0.34996269501E-01  0.35000000000E-01  0.51099999109E-03 0. -1.
       11   -1    0    0    0    0 -0.00000000000E+00 -0.00000000000E+00 -0.34996269501E-01  0.35000000000E-01  0.51099999109E-03 0.  1.
       22    1    1    2    0    0  0.17162678907E-03  0.16736053098E-02 -0.28272189697E-01  0.28322201905E-01  0.00000000000E+00 0.  1.
       22    1    1    2    0    0  0.16449153187E-02 -0.11598337098E-02 -0.65255484897E-02  0.68288903734E-02  0.00000000000E+00 0.  1.
       22    1    1    2    0    0 -0.18165421078E-02 -0.51377159994E-03  0.34797738187E-01  0.34848907722E-01  0.00000000000E+00 0. -1.
</event>
<event>
 5   0  0.1118918E+07  0.9118800E+02  0.7546771E-02  0.1180000E+00
      -11   -1    0    0    0    0  0.00000000000E+00  0.00000000000E+00  0.34996269501E-01  0.35000000000E-01  0.51099999109E-03 0.  1.
       11   -1    0    0    0    0 -0.00000000000E+00 -0.00000000000E+00 -0.34996269501E-01  0.35000000000E-01  0.51099999109E-03 0. -1.
       22    1    1    2    0    0 -0.15207652785E-01  0.18006843249E-02  0.31339012410E-01  0.34880494063E-01  0.00000000000E+00 0.  1.
       22    1    1    2    0    0  0.73438202387E-05 -0.11509067333E-04  0.12748134246E-03  0.12821030770E-03  0.00000000000E+00 0.  1.
       22    1    1    2    0    0  0.15200308965E-01 -0.17891752575E-02 -0.31466493752E-01  0.34991295629E-01  0.00000000000E+00 0. -1.
</event>
<event>
 5   0  0.1118918E+07  0.9118800E+02  0.7546771E-02  0.1180000E+00
      -11   -1    0    0    0    0  0.00000000000E+00  0.00000000000E+00  0.34996269501E-01  0.35000000000E-01  0.51099999109E-03 0. -1.
       11   -1    0    0    0    0 -0.00000000000E+00 -0.00000000000E+00 -0.34996269501E-01  0.35000000000E-01  0.51099999109E-03 0.  1.
       22    1    1    2    0    0  0.95247180691E-02  0.42501837502E-04 -0.33678971531E-01  0.34999931201E-01  0.00000000000E+00 0.  1.
       22    1    1    2    0    0 -0.95219732349E-02 -0.43414934638E-04  0.33662081403E-01  0.34982932746E-01  0.00000000000E+00 0. -1.
       22    1    1    2    0    0 -0.27448342471E-05  0.91309713589E-06  0.16890128425E-04  0.17136052627E-04  0.00000000000E+00 0.  1.
</event>
<event>
 5   0  0.1118918E+07  0.9118800E+02  0.7546771E-02  0.1180000E+00
      -11   -1    0    0    0    0  0.00000000000E+00  0.00000000000E+00  0.34996269501E-01  0.35000000000E-01  0.51099999109E-03 0.  1.
       11   -1    0    0    0    0 -0.00000000000E+00 -0.00000000000E+00 -0.34996269501E-01  0.35000000000E-01  0.51099999109E-03 0. -1.
       22    1    1    2    0    0 -0.68798249112E-02 -0.60570077953E-02 -0.15842790579E-01  0.18303369842E-01  0.00000000000E+00 0. -1.
       22    1    1    2    0    0  0.33429796027E-03 -0.18604856110E-03 -0.17319051391E-01  0.17323276545E-01  0.00000000000E+00 0. -1.
       22    1    1    2    0    0  0.65455269509E-02  0.62430563564E-02  0.33161841970E-01  0.34373353613E-01  0.00000000000E+00 0.  1.
</event>
<event>
 5   0  0.1118918E+07  0.9118800E+02  0.7546771E-02  0.1180000E+00
      -11   -1    0    0    0    0  0.00000000000E+00  0.00000000000E+00  0.34996269501E-01  0.35000000000E-01  0.51099999109E-03 0.  1.
       11   -1    0    0    0    0 -0.00000000000E+00 -0.00000000000E+00 -0.34996269501E-01  0.35000000000E-01  0.51099999109E-03 0. -1.
       22    1    1    2    0    0  0.32624278839E-02  0.34844200060E-01  0.34340022402E-03  0.34998280490E-01  0.00000000000E+00 0.  1.
       22    1    1    2    0    0 -0.32464583105E-02 -0.34819400037E-01 -0.34044327897E-03  0.34972074747E-01  0.00000000000E+00 0. -1.
       22    1    1    2    0    0 -0.15969573359E-04 -0.24800023678E-04 -0.29569450519E-05  0.29644762973E-04  0.00000000000E+00 0. -1.
</event>
<event>
 5   0  0.1118918E+07  0.9118800E+02  0.7546771E-02  0.1180000E+00
      -11   -1    0    0    0    0  0.00000000000E+00  0.00000000000E+00  0.34996269501E-01  0.35000000000E-01  0.51099999109E-03 0. -1.
       11   -1    0    0    0    0 -0.00000000000E+00 -0.00000000000E+00 -0.34996269501E-01  0.35000000000E-01  0.51099999109E-03 0.  1.
       22    1    1    2    0    0 -0.11389943600E-01  0.60468329786E-02  0.32419106288E-01  0.34889732828E-01  0.00000000000E+00 0. -1.
       22    1    1    2    0    0  0.11512507881E-01 -0.60562575829E-02 -0.30133954413E-01  0.32821811379E-01  0.00000000000E+00 0.  1.
       22    1    1    2    0    0 -0.12256428155E-03  0.94246043653E-05 -0.22851518753E-02  0.22884557936E-02  0.00000000000E+00 0. -1.
</event>
<event>
 5   0  0.1118918E+07  0.9118800E+02  0.7546771E-02  0.1180000E+00
      -11   -1    0    0    0    0  0.00000000000E+00  0.00000000000E+00  0.34996269501E-01  0.35000000000E-01  0.51099999109E-03 0. -1.
       11   -1    0    0    0    0 -0.00000000000E+00 -0.00000000000E+00 -0.34996269501E-01  0.35000000000E-01  0.51099999109E-03 0.  1.
       22    1    1    2    0    0 -0.11349004323E-02  0.22884242146E-02 -0.28441003802E-01  0.28555482515E-01  0.00000000000E+00 0.  1.
       22    1    1    2    0    0 -0.18997668643E-02 -0.54022065665E-03 -0.62615622691E-02  0.65656770059E-02  0.00000000000E+00 0.  1.
       22    1    1    2    0    0  0.30346672966E-02 -0.17482035580E-02  0.34702566071E-01  0.34878840480E-01  0.00000000000E+00 0. -1.
</event>
<event>
 5   0  0.1118918E+07  0.9118800E+02  0.7546771E-02  0.1180000E+00
      -11   -1    0    0    0    0  0.00000000000E+00  0.00000000000E+00  0.34996269501E-01  0.35000000000E-01  0.51099999109E-03 0. -1.
       11   -1    0    0    0    0 -0.00000000000E+00 -0.00000000000E+00 -0.34996269501E-01  0.35000000000E-01  0.51099999109E-03 0.  1.
       22    1    1    2    0    0  0.12265116961E-02 -0.21294255876E-02 -0.34907900301E-01  0.34994289359E-01  0.00000000000E+00 0.  1.
       22    1    1    2    0    0 -0.11951382272E-02  0.21454294966E-02  0.34859244320E-01  0.34945645475E-01  0.00000000000E+00 0. -1.
       22    1    1    2    0    0 -0.31373468936E-04 -0.16003908979E-04  0.48655980934E-04  0.60065165748E-04  0.00000000000E+00 0.  1.
</event>
<event>
 5   0  0.1568991E+07  0.9118800E+02  0.7546771E-02  0.1180000E+00
      -11   -1    0    0    0    0  0.00000000000E+00  0.00000000000E+00  0.34996269501E-01  0.35000000000E-01  0.51099999109E-03 0. -1.
       11   -1    0    0    0    0 -0.00000000000E+00 -0.00000000000E+00 -0.34996269501E-01  0.35000000000E-01  0.51099999109E-03 0.  1.
       22    1    1    2    0    0  0.46546732509E-07 -0.13267737834E-06  0.48434582355E-06  0.50434190964E-06  0.00000000000E+00 0.  1.
       22    1    1    2    0    0  0.19342388762E-01 -0.81541184567E-02  0.28006234132E-01  0.34999525727E-01  0.00000000000E+00 0. -1.
       22    1    1    2    0    0 -0.19342435309E-01  0.81542511341E-02 -0.28006718478E-01  0.34999969931E-01  0.00000000000E+00 0.  1.
</event>
<event>
 5   0  0.1118918E+07  0.9118800E+02  0.7546771E-02  0.1180000E+00
      -11   -1    0    0    0    0  0.00000000000E+00  0.00000000000E+00  0.34996269501E-01  0.35000000000E-01  0.51099999109E-03 0. -1.
       11   -1    0    0    0    0 -0.00000000000E+00 -0.00000000000E+00 -0.34996269501E-01  0.35000000000E-01  0.51099999109E-03 0.  1.
       22    1    1    2    0    0 -0.68185187772E-03  0.28360176753E-02 -0.28074912382E-01  0.28226027413E-01  0.00000000000E+00 0.  1.
       22    1    1    2    0    0 -0.10265334551E-02 -0.16874312161E-02 -0.66760444527E-02  0.69620948412E-02  0.00000000000E+00 0. -1.
       22    1    1    2    0    0  0.17083853328E-02 -0.11485864592E-02  0.34750956835E-01  0.34811877746E-01  0.00000000000E+00 0. -1.
</event>
<event>
 5   0  0.1118918E+07  0.9118800E+02  0.7546771E-02  0.1180000E+00
      -11   -1    0    0    0    0  0.00000000000E+00  0.00000000000E+00  0.34996269501E-01  0.35000000000E-01  0.51099999109E-03 0.  1.
       11   -1    0    0    0    0 -0.00000000000E+00 -0.00000000000E+00 -0.34996269501E-01  0.35000000000E-01  0.51099999109E-03 0. -1.
       22    1    1    2    0    0  0.17825935528E-01 -0.17241537817E-02  0.17264162562E-01  0.24875449597E-01  0.00000000000E+00 0.  1.
       22    1    1    2    0    0  0.62068133184E-03  0.15939471555E-02  0.11131931040E-01  0.11262584141E-01  0.00000000000E+00 0.  1.
       22    1    1    2    0    0 -0.18446616859E-01  0.13020662622E-03 -0.28396093601E-01  0.33861966262E-01  0.00000000000E+00 0. -1.
</event>
<event>
 5   0  0.1118918E+07  0.9118800E+02  0.7546771E-02  0.1180000E+00
      -11   -1    0    0    0    0  0.00000000000E+00  0.00000000000E+00  0.34996269501E-01  0.35000000000E-01  0.51099999109E-03 0. -1.
       11   -1    0    0    0    0 -0.00000000000E+00 -0.00000000000E+00 -0.34996269501E-01  0.35000000000E-01  0.51099999109E-03 0.  1.
       22    1    1    2    0    0  0.35446240063E-03  0.17226357357E-02 -0.34955405842E-01  0.34999621641E-01  0.00000000000E+00 0.  1.
       22    1    1    2    0    0 -0.35627422719E-03 -0.17235683220E-02  0.34952737117E-01  0.34997020603E-01  0.00000000000E+00 0. -1.
       22    1    1    2    0    0  0.18118265670E-05  0.93258628576E-06  0.26687245113E-05  0.33577556800E-05  0.00000000000E+00 0.  1.
</event>
<event>
 5   0  0.1118918E+07  0.9118800E+02  0.7546771E-02  0.1180000E+00
      -11   -1    0    0    0    0  0.00000000000E+00  0.00000000000E+00  0.34996269501E-01  0.35000000000E-01  0.51099999109E-03 0. -1.
       11   -1    0    0    0    0 -0.00000000000E+00 -0.00000000000E+00 -0.34996269501E-01  0.35000000000E-01  0.51099999109E-03 0.  1.
       22    1    1    2    0    0 -0.13024282416E-02 -0.12473761214E-01  0.32675518169E-01  0.34999721796E-01  0.00000000000E+00 0. -1.
       22    1    1    2    0    0  0.13024828176E-02  0.12473592877E-01 -0.32675810350E-01  0.34999936611E-01  0.00000000000E+00 0.  1.
       22    1    1    2    0    0 -0.54575936241E-07  0.16833767211E-06  0.29218121730E-06  0.34159327923E-06  0.00000000000E+00 0. -1.
</event>
<event>
 5   0  0.1118918E+07  0.9118800E+02  0.7546771E-02  0.1180000E+00
      -11   -1    0    0    0    0  0.00000000000E+00  0.00000000000E+00  0.34996269501E-01  0.35000000000E-01  0.51099999109E-03 0. -1.
       11   -1    0    0    0    0 -0.00000000000E+00 -0.00000000000E+00 -0.34996269501E-01  0.35000000000E-01  0.51099999109E-03 0.  1.
       22    1    1    2    0    0  0.74201258501E-03  0.28941307548E-03  0.34983763994E-01  0.34992829063E-01  0.00000000000E+00 0. -1.
       22    1    1    2    0    0 -0.63469476925E-04 -0.25654285143E-03 -0.21230241215E-02  0.21394097385E-02  0.00000000000E+00 0. -1.
       22    1    1    2    0    0 -0.67854310808E-03 -0.32870224054E-04 -0.32860739873E-01  0.32867761199E-01  0.00000000000E+00 0.  1.
</event>
<event>
 5   0  0.1118918E+07  0.9118800E+02  0.7546771E-02  0.1180000E+00
      -11   -1    0    0    0    0  0.00000000000E+00  0.00000000000E+00  0.34996269501E-01  0.35000000000E-01  0.51099999109E-03 0. -1.
       11   -1    0    0    0    0 -0.00000000000E+00 -0.00000000000E+00 -0.34996269501E-01  0.35000000000E-01  0.51099999109E-03 0.  1.
       22    1    1    2    0    0  0.26106777481E-03  0.13024788695E-03 -0.18108056560E-03  0.34338180840E-03  0.00000000000E+00 0.  1.
       22    1    1    2    0    0  0.68841805645E-03 -0.46646229989E-02  0.34603793329E-01  0.34923561387E-01  0.00000000000E+00 0. -1.
       22    1    1    2    0    0 -0.94948583126E-03  0.45343751120E-02 -0.34422712764E-01  0.34733056805E-01  0.00000000000E+00 0.  1.
</event>
<event>
 5   0  0.1118918E+07  0.9118800E+02  0.7546771E-02  0.1180000E+00
      -11   -1    0    0    0    0  0.00000000000E+00  0.00000000000E+00  0.34996269501E-01  0.35000000000E-01  0.51099999109E-03 0.  1.
       11   -1    0    0    0    0 -0.00000000000E+00 -0.00000000000E+00 -0.34996269501E-01  0.35000000000E-01  0.51099999109E-03 0. -1.
       22    1    1    2    0    0 -0.84593449207E-03  0.13622110026E-02  0.23970583931E-01  0.24024156967E-01  0.00000000000E+00 0.  1.
       22    1    1    2    0    0 -0.14519707974E-03  0.28159110254E-03  0.10974004141E-01  0.10978576530E-01  0.00000000000E+00 0.  1.
       22    1    1    2    0    0  0.99113157181E-03 -0.16438021052E-02 -0.34944588072E-01  0.34997266503E-01  0.00000000000E+00 0. -1.
</event>
<event>
 5   0  0.1118918E+07  0.9118800E+02  0.7546771E-02  0.1180000E+00
      -11   -1    0    0    0    0  0.00000000000E+00  0.00000000000E+00  0.34996269501E-01  0.35000000000E-01  0.51099999109E-03 0.  1.
       11   -1    0    0    0    0 -0.00000000000E+00 -0.00000000000E+00 -0.34996269501E-01  0.35000000000E-01  0.51099999109E-03 0. -1.
       22    1    1    2    0    0  0.25282405646E-02  0.79127092125E-04 -0.34904046850E-01  0.34995581835E-01  0.00000000000E+00 0. -1.
       22    1    1    2    0    0 -0.25435455987E-02 -0.95512351261E-04  0.34874816417E-01  0.34967578797E-01  0.00000000000E+00 0.  1.
       22    1    1    2    0    0  0.15305034075E-04  0.16385259136E-04  0.29230433099E-04  0.36839367586E-04  0.00000000000E+00 0.  1.
</event>
<event>
 5   0  0.1118918E+07  0.9118800E+02  0.7546771E-02  0.1180000E+00
      -11   -1    0    0    0    0  0.00000000000E+00  0.00000000000E+00  0.34996269501E-01  0.35000000000E-01  0.51099999109E-03 0.  1.
       11   -1    0    0    0    0 -0.00000000000E+00 -0.00000000000E+00 -0.34996269501E-01  0.35000000000E-01  0.51099999109E-03 0. -1.
       22    1    1    2    0    0  0.33175819903E-05  0.48223650034E-06  0.64282770513E-05  0.72499412517E-05  0.00000000000E+00 0.  1.
       22    1    1    2    0    0 -0.68129537210E-02 -0.37231154061E-02  0.34121450376E-01  0.34993589449E-01  0.00000000000E+00 0.  1.
       22    1    1    2    0    0  0.68096361390E-02  0.37226331696E-02 -0.34127878653E-01  0.34999160610E-01  0.00000000000E+00 0. -1.
</event>
<event>
 5   0  0.1118918E+07  0.9118800E+02  0.7546771E-02  0.1180000E+00
      -11   -1    0    0    0    0  0.00000000000E+00  0.00000000000E+00  0.34996269501E-01  0.35000000000E-01  0.51099999109E-03 0.  1.
       11   -1    0    0    0    0 -0.00000000000E+00 -0.00000000000E+00 -0.34996269501E-01  0.35000000000E-01  0.51099999109E-03 0. -1.
       22    1    1    2    0    0  0.47391881602E-06 -0.49323754919E-03 -0.33154720078E-01  0.33158388787E-01  0.00000000000E+00 0. -1.
       22    1    1    2    0    0  0.23641071672E-03 -0.68824197024E-04 -0.18325536488E-02  0.18490212743E-02  0.00000000000E+00 0.  1.
       22    1    1    2    0    0 -0.23688463554E-03  0.56206174622E-03  0.34987273727E-01  0.34992589938E-01  0.00000000000E+00 0.  1.
</event>
<event>
 5   0  0.1118918E+07  0.9118800E+02  0.7546771E-02  0.1180000E+00
      -11   -1    0    0    0    0  0.00000000000E+00  0.00000000000E+00  0.34996269501E-01  0.35000000000E-01  0.51099999109E-03 0.  1.
       11   -1    0    0    0    0 -0.00000000000E+00 -0.00000000000E+00 -0.34996269501E-01  0.35000000000E-01  0.51099999109E-03 0. -1.
       22    1    1    2    0    0  0.26265284766E-02 -0.20112166094E-01 -0.27263490365E-01  0.33980814936E-01  0.00000000000E+00 0. -1.
       22    1    1    2    0    0 -0.23444856389E-03  0.15058264880E-03  0.85457185600E-02  0.85502600528E-02  0.00000000000E+00 0.  1.
       22    1    1    2    0    0 -0.23920799127E-02  0.19961583445E-01  0.18717771805E-01  0.27468925011E-01  0.00000000000E+00 0.  1.
</event>
<event>
 5   0  0.1118918E+07  0.9118800E+02  0.7546771E-02  0.1180000E+00
      -11   -1    0    0    0    0  0.00000000000E+00  0.00000000000E+00  0.34996269501E-01  0.35000000000E-01  0.51099999109E-03 0.  1.
       11   -1    0    0    0    0 -0.00000000000E+00 -0.00000000000E+00 -0.34996269501E-01  0.35000000000E-01  0.51099999109E-03 0. -1.
       22    1    1    2    0    0 -0.38109385817E-02  0.18325369253E-02  0.34728006488E-01  0.34984509130E-01  0.00000000000E+00 0.  1.
       22    1    1    2    0    0  0.39012270130E-02 -0.19183080668E-02 -0.33420380705E-01  0.33701948379E-01  0.00000000000E+00 0. -1.
       22    1    1    2    0    0 -0.90288431241E-04  0.85771141483E-04 -0.13076257826E-02  0.13135424915E-02  0.00000000000E+00 0.  1.
</event>
<event>
 5   0  0.1118918E+07  0.9118800E+02  0.7546771E-02  0.1180000E+00
      -11   -1    0    0    0    0  0.00000000000E+00  0.00000000000E+00  0.34996269501E-01  0.35000000000E-01  0.51099999109E-03 0.  1.
       11   -1    0    0    0    0 -0.00000000000E+00 -0.00000000000E+00 -0.34996269501E-01  0.35000000000E-01  0.51099999109E-03 0.  1.
       22    1    1    2    0    0  0.27690879812E-02 -0.12574156961E-02 -0.66978802342E-02  0.73559868211E-02  0.00000000000E+00 0. -1.
       22    1    1    2    0    0  0.00000000000E+00 -0.00000000000E+00  0.34588769074E-01  0.34587808469E-01  0.00000000000E+00 0.  1.
       22    1    1    2    0    0 -0.27690879812E-02  0.12574156961E-02 -0.27890888840E-01  0.28056204710E-01  0.00000000000E+00 0.  1.
</event>
<event>
 5   0  0.1118918E+07  0.9118800E+02  0.7546771E-02  0.1180000E+00
      -11   -1    0    0    0    0  0.00000000000E+00  0.00000000000E+00  0.34996269501E-01  0.35000000000E-01  0.51099999109E-03 0.  1.
       11   -1    0    0    0    0 -0.00000000000E+00 -0.00000000000E+00 -0.34996269501E-01  0.35000000000E-01  0.51099999109E-03 0. -1.
       22    1    1    2    0    0 -0.13618961276E-03  0.17389992175E-02  0.10440166490E-01  0.10584882721E-01  0.00000000000E+00 0.  1.
       22    1    1    2    0    0 -0.55791826271E-02 -0.10121007533E-01 -0.32845806729E-01  0.34819665305E-01  0.00000000000E+00 0. -1.
       22    1    1    2    0    0  0.57153722398E-02  0.83820083157E-02  0.22405640239E-01  0.24595451974E-01  0.00000000000E+00 0.  1.
</event>
<event>
 5   0  0.1118918E+07  0.9118800E+02  0.7546771E-02  0.1180000E+00
      -11   -1    0    0    0    0  0.00000000000E+00  0.00000000000E+00  0.34996269501E-01  0.35000000000E-01  0.51099999109E-03 0. -1.
       11   -1    0    0    0    0 -0.00000000000E+00 -0.00000000000E+00 -0.34996269501E-01  0.35000000000E-01  0.51099999109E-03 0.  1.
       22    1    1    2    0    0 -0.11477191217E-05 -0.31907972341E-06  0.28074177771E-04  0.28099440004E-04  0.00000000000E+00 0.  1.
       22    1    1    2    0    0 -0.68047540135E-02  0.24810256251E-02  0.34213868587E-01  0.34972117022E-01  0.00000000000E+00 0. -1.
       22    1    1    2    0    0  0.68059017326E-02 -0.24807065454E-02 -0.34241942765E-01  0.34999783538E-01  0.00000000000E+00 0.  1.
</event>
<event>
 5   0  0.1118918E+07  0.9118800E+02  0.7546771E-02  0.1180000E+00
      -11   -1    0    0    0    0  0.00000000000E+00  0.00000000000E+00  0.34996269501E-01  0.35000000000E-01  0.51099999109E-03 0. -1.
       11   -1    0    0    0    0 -0.00000000000E+00 -0.00000000000E+00 -0.34996269501E-01  0.35000000000E-01  0.51099999109E-03 0.  1.
       22    1    1    2    0    0 -0.19183471816E-02  0.18236162745E-02  0.34735475286E-01  0.34836171942E-01  0.00000000000E+00 0. -1.
       22    1    1    2    0    0 -0.17948871985E-03  0.24969687446E-03 -0.42055581781E-05  0.30754254403E-03  0.00000000000E+00 0. -1.
       22    1    1    2    0    0  0.20978359015E-02 -0.20733131490E-02 -0.34731269728E-01  0.34856285514E-01  0.00000000000E+00 0.  1.
</event>
<event>
 5   0  0.1118918E+07  0.9118800E+02  0.7546771E-02  0.1180000E+00
      -11   -1    0    0    0    0  0.00000000000E+00  0.00000000000E+00  0.34996269501E-01  0.35000000000E-01  0.51099999109E-03 0.  1.
       11   -1    0    0    0    0 -0.00000000000E+00 -0.00000000000E+00 -0.34996269501E-01  0.35000000000E-01  0.51099999109E-03 0. -1.
       22    1    1    2    0    0  0.45597937991E-02 -0.11493457936E-01 -0.32240688662E-01  0.34530469157E-01  0.00000000000E+00 0. -1.
       22    1    1    2    0    0 -0.37780447827E-03  0.75398501120E-04 -0.44892677556E-03  0.59157113485E-03  0.00000000000E+00 0.  1.
       22    1    1    2    0    0 -0.41819893209E-02  0.11418059435E-01  0.32689615438E-01  0.34877959708E-01  0.00000000000E+00 0.  1.
</event>
<event>
 5   0  0.1118918E+07  0.9118800E+02  0.7546771E-02  0.1180000E+00
      -11   -1    0    0    0    0  0.00000000000E+00  0.00000000000E+00  0.34996269501E-01  0.35000000000E-01  0.51099999109E-03 0. -1.
       11   -1    0    0    0    0 -0.00000000000E+00 -0.00000000000E+00 -0.34996269501E-01  0.35000000000E-01  0.51099999109E-03 0. -1.
       22    1    1    2    0    0  0.28822418912E-02  0.79988195840E-03  0.34863353870E-01  0.34991435702E-01  0.00000000000E+00 0. -1.
       22    1    1    2    0    0  0.42060936392E-04  0.11325799933E-03 -0.14938118455E-02  0.14986895364E-02  0.00000000000E+00 0.  1.
       22    1    1    2    0    0 -0.29243028276E-02 -0.91313995773E-03 -0.33369542024E-01  0.33509874761E-01  0.00000000000E+00 0. -1.
</event>
<event>
 5   0  0.1118918E+07  0.9118800E+02  0.7546771E-02  0.1180000E+00
      -11   -1    0    0    0    0  0.00000000000E+00  0.00000000000E+00  0.34996269501E-01  0.35000000000E-01  0.51099999109E-03 0. -1.
       11   -1    0    0    0    0 -0.00000000000E+00 -0.00000000000E+00 -0.34996269501E-01  0.35000000000E-01  0.51099999109E-03 0.  1.
       22    1    1    2    0    0 -0.41071046436E-06  0.24910708982E-06 -0.31874109766E-07  0.48140771349E-06  0.00000000000E+00 0. -1.
       22    1    1    2    0    0  0.14757740940E-02 -0.17501341415E-02  0.34924839689E-01  0.34999790084E-01  0.00000000000E+00 0. -1.
       22    1    1    2    0    0 -0.14753633835E-02  0.17498850344E-02 -0.34924807814E-01  0.34999728508E-01  0.00000000000E+00 0.  1.
</event>
<event>
 5   0  0.1118918E+07  0.9118800E+02  0.7546771E-02  0.1180000E+00
      -11   -1    0    0    0    0  0.00000000000E+00  0.00000000000E+00  0.34996269501E-01  0.35000000000E-01  0.51099999109E-03 0. -1.
       11   -1    0    0    0    0 -0.00000000000E+00 -0.00000000000E+00 -0.34996269501E-01  0.35000000000E-01  0.51099999109E-03 0.  1.
       22    1    1    2    0    0  0.12384303095E-01 -0.20518762919E-01 -0.23663384591E-01  0.33680058866E-01  0.00000000000E+00 0.  1.
       22    1    1    2    0    0  0.27866911383E-02  0.24640688019E-02  0.16852545946E-02  0.40837930419E-02  0.00000000000E+00 0. -1.
       22    1    1    2    0    0 -0.15170994233E-01  0.18054694117E-01  0.21978129997E-01  0.32236148092E-01  0.00000000000E+00 0. -1.
</event>
<event>
 5   0  0.1177557E+07  0.9118800E+02  0.7546771E-02  0.1180000E+00
      -11   -1    0    0    0    0  0.00000000000E+00  0.00000000000E+00  0.34996269501E-01  0.35000000000E-01  0.51099999109E-03 0.  1.
       11   -1    0    0    0    0 -0.00000000000E+00 -0.00000000000E+00 -0.34996269501E-01  0.35000000000E-01  0.51099999109E-03 0. -1.
       22    1    1    2    0    0  0.12215230274E-02 -0.26264013337E-02  0.34815183748E-01  0.34935470827E-01  0.00000000000E+00 0.  1.
       22    1    1    2    0    0  0.33532582503E-05 -0.12009119522E-05  0.64487178186E-04  0.64585468032E-04  0.00000000000E+00 0.  1.
       22    1    1    2    0    0 -0.12248762856E-02  0.26276022457E-02 -0.34879670926E-01  0.34999943705E-01  0.00000000000E+00 0. -1.
</event>
<event>
 5   0  0.1118918E+07  0.9118800E+02  0.7546771E-02  0.1180000E+00
      -11   -1    0    0    0    0  0.00000000000E+00  0.00000000000E+00  0.34996269501E-01  0.35000000000E-01  0.51099999109E-03 0.  1.
       11   -1    0    0    0    0 -0.00000000000E+00 -0.00000000000E+00 -0.34996269501E-01  0.35000000000E-01  0.51099999109E-03 0. -1.
       22    1    1    2    0    0  0.92378058197E-08 -0.28082880065E-06  0.26479889023E-06  0.38609403595E-06  0.00000000000E+00 0. -1.
       22    1    1    2    0    0 -0.25837938577E-01  0.14048915877E-02 -0.23567362394E-01  0.34999905150E-01  0.00000000000E+00 0. -1.
       22    1    1    2    0    0  0.25837929340E-01 -0.14046107589E-02  0.23567097595E-01  0.34999708756E-01  0.00000000000E+00 0.  1.
</event>
<event>
 5   0  0.1118918E+07  0.9118800E+02  0.7546771E-02  0.1180000E+00
      -11   -1    0    0    0    0  0.00000000000E+00  0.00000000000E+00  0.34996269501E-01  0.35000000000E-01  0.51099999109E-03 0. -1.
       11   -1    0    0    0    0 -0.00000000000E+00 -0.00000000000E+00 -0.34996269501E-01  0.35000000000E-01  0.51099999109E-03 0.  1.
       22    1    1    2    0    0 -0.10288983256E-03 -0.15472691786E-03  0.83947866729E-02  0.83968428602E-02  0.00000000000E+00 0.  1.
       22    1    1    2    0    0  0.12655180157E-02  0.14527538957E-02 -0.34943871701E-01  0.34996945569E-01  0.00000000000E+00 0.  1.
       22    1    1    2    0    0 -0.11626281832E-02 -0.12980269779E-02  0.26549085028E-01  0.26606211571E-01  0.00000000000E+00 0. -1.
</event>
<event>
 5   0  0.1118918E+07  0.9118800E+02  0.7546771E-02  0.1180000E+00
      -11   -1    0    0    0    0  0.00000000000E+00  0.00000000000E+00  0.34996269501E-01  0.35000000000E-01  0.51099999109E-03 0.  1.
       11   -1    0    0    0    0 -0.00000000000E+00 -0.00000000000E+00 -0.34996269501E-01  0.35000000000E-01  0.51099999109E-03 0. -1.
       22    1    1    2    0    0  0.10958540109E-01  0.31305706159E-01 -0.25529100038E-02  0.33266412324E-01  0.00000000000E+00 0. -1.
       22    1    1    2    0    0 -0.28943674511E-02 -0.59307077597E-03 -0.33168721361E-02  0.44419293842E-02  0.00000000000E+00 0.  1.
       22    1    1    2    0    0 -0.80641726582E-02 -0.30712635383E-01  0.58697821399E-02  0.32291658291E-01  0.00000000000E+00 0.  1.
</event>
<event>
 5   0  0.1118918E+07  0.9118800E+02  0.7546771E-02  0.1180000E+00
      -11   -1    0    0    0    0  0.00000000000E+00  0.00000000000E+00  0.34996269501E-01  0.35000000000E-01  0.51099999109E-03 0. -1.
       11   -1    0    0    0    0 -0.00000000000E+00 -0.00000000000E+00 -0.34996269501E-01  0.35000000000E-01  0.51099999109E-03 0.  1.
       22    1    1    2    0    0 -0.27117162113E-01 -0.11472743948E-02 -0.22093378898E-01  0.34996772861E-01  0.00000000000E+00 0.  1.
       22    1    1    2    0    0  0.27116916836E-01  0.11471795137E-02  0.22075362219E-01  0.34985208540E-01  0.00000000000E+00 0. -1.
       22    1    1    2    0    0  0.24527710805E-06  0.94881155427E-07  0.18016679046E-04  0.18018598367E-04  0.00000000000E+00 0.  1.
</event>
<event>
 5   0  0.1118918E+07  0.9118800E+02  0.7546771E-02  0.1180000E+00
      -11   -1    0    0    0    0  0.00000000000E+00  0.00000000000E+00  0.34996269501E-01  0.35000000000E-01  0.51099999109E-03 0.  1.
       11   -1    0    0    0    0 -0.00000000000E+00 -0.00000000000E+00 -0.34996269501E-01  0.35000000000E-01  0.51099999109E-03 0. -1.
       22    1    1    2    0    0 -0.12786348976E-01  0.36634071152E-02  0.26424362790E-01  0.29583073212E-01  0.00000000000E+00 0.  1.
       22    1    1    2    0    0  0.93235858291E-02 -0.46217862889E-02  0.29557910135E-02  0.10817895439E-01  0.00000000000E+00 0. -1.
       22    1    1    2    0    0  0.34627631471E-02  0.95837917377E-03 -0.29380153804E-01  0.29599031349E-01  0.00000000000E+00 0. -1.
</event>
<event>
 5   0  0.1118918E+07  0.9118800E+02  0.7546771E-02  0.1180000E+00
      -11   -1    0    0    0    0  0.00000000000E+00  0.00000000000E+00  0.34996269501E-01  0.35000000000E-01  0.51099999109E-03 0.  1.
       11   -1    0    0    0    0 -0.00000000000E+00 -0.00000000000E+00 -0.34996269501E-01  0.35000000000E-01  0.51099999109E-03 0.  1.
       22    1    1    2    0    0  0.00000000000E+00  0.00000000000E+00  0.20947272958E-01  0.20946863028E-01  0.00000000000E+00 0.  1.
       22    1    1    2    0    0  0.10717319955E-02 -0.14310761684E-02 -0.34920375477E-01  0.34966115197E-01  0.00000000000E+00 0.  1.
       22    1    1    2    0    0 -0.10717319955E-02  0.14310761684E-02  0.13973102520E-01  0.14087021775E-01  0.00000000000E+00 0. -1.
</event>
<event>
 5   0  0.1118918E+07  0.9118800E+02  0.7546771E-02  0.1180000E+00
      -11   -1    0    0    0    0  0.00000000000E+00  0.00000000000E+00  0.34996269501E-01  0.35000000000E-01  0.51099999109E-03 0.  1.
       11   -1    0    0    0    0 -0.00000000000E+00 -0.00000000000E+00 -0.34996269501E-01  0.35000000000E-01  0.51099999109E-03 0. -1.
       22    1    1    2    0    0 -0.69664620993E-03  0.13646482757E-02 -0.85120165291E-02  0.86488153091E-02  0.00000000000E+00 0.  1.
       22    1    1    2    0    0 -0.22776545914E-02 -0.30161520313E-02 -0.26200828431E-01  0.26472028521E-01  0.00000000000E+00 0. -1.
       22    1    1    2    0    0  0.29743008013E-02  0.16515037556E-02  0.34712844960E-01  0.34879156170E-01  0.00000000000E+00 0.  1.
</event>
<event>
 5   0  0.1118918E+07  0.9118800E+02  0.7546771E-02  0.1180000E+00
      -11   -1    0    0    0    0  0.00000000000E+00  0.00000000000E+00  0.34996269501E-01  0.35000000000E-01  0.51099999109E-03 0. -1.
       11   -1    0    0    0    0 -0.00000000000E+00 -0.00000000000E+00 -0.34996269501E-01  0.35000000000E-01  0.51099999109E-03 0.  1.
       22    1    1    2    0    0 -0.10439007900E-03 -0.14915144775E-03  0.28686982992E-03  0.33976130191E-03  0.00000000000E+00 0.  1.
       22    1    1    2    0    0 -0.81449139011E-02  0.20837853617E-01 -0.26879595691E-01  0.34972395261E-01  0.00000000000E+00 0.  1.
       22    1    1    2    0    0  0.82493039801E-02 -0.20688702169E-01  0.26592725861E-01  0.34687843437E-01  0.00000000000E+00 0. -1.
</event>
<event>
 5   0  0.1118918E+07  0.9118800E+02  0.7546771E-02  0.1180000E+00
      -11   -1    0    0    0    0  0.00000000000E+00  0.00000000000E+00  0.34996269501E-01  0.35000000000E-01  0.51099999109E-03 0.  1.
       11   -1    0    0    0    0 -0.00000000000E+00 -0.00000000000E+00 -0.34996269501E-01  0.35000000000E-01  0.51099999109E-03 0.  1.
       22    1    1    2    0    0 -0.31656598807E-02 -0.10174423789E-02  0.33951715230E-01  0.34114154812E-01  0.00000000000E+00 0.  1.
       22    1    1    2    0    0  0.10587730123E-03 -0.13375976411E-03  0.88236020396E-03  0.89869973125E-03  0.00000000000E+00 0. -1.
       22    1    1    2    0    0  0.30597825795E-02  0.11512021430E-02 -0.34834075434E-01  0.34987145456E-01  0.00000000000E+00 0.  1.
</event>
<event>
 5   0  0.1118918E+07  0.9118800E+02  0.7546771E-02  0.1180000E+00
      -11   -1    0    0    0    0  0.00000000000E+00  0.00000000000E+00  0.34996269501E-01  0.35000000000E-01  0.51099999109E-03 0.  1.
       11   -1    0    0    0    0 -0.00000000000E+00 -0.00000000000E+00 -0.34996269501E-01  0.35000000000E-01  0.51099999109E-03 0. -1.
       22    1    1    2    0    0  0.49678478388E-03  0.75155331489E-02  0.34061266470E-01  0.34884092466E-01  0.00000000000E+00 0.  1.
       22    1    1    2    0    0 -0.73721465891E-03 -0.76930182367E-02 -0.27990924063E-01  0.29038213529E-01  0.00000000000E+00 0. -1.
       22    1    1    2    0    0  0.24042987502E-03  0.17748508779E-03 -0.60703424066E-02  0.60776940047E-02  0.00000000000E+00 0.  1.
</event>
<event>
 5   0  0.1118918E+07  0.9118800E+02  0.7546771E-02  0.1180000E+00
      -11   -1    0    0    0    0  0.00000000000E+00  0.00000000000E+00  0.34996269501E-01  0.35000000000E-01  0.51099999109E-03 0. -1.
       11   -1    0    0    0    0 -0.00000000000E+00 -0.00000000000E+00 -0.34996269501E-01  0.35000000000E-01  0.51099999109E-03 0.  1.
       22    1    1    2    0    0  0.12261419128E-01  0.13608271913E-02  0.31774107452E-01  0.34085013629E-01  0.00000000000E+00 0. -1.
       22    1    1    2    0    0 -0.85838898002E-02 -0.18853052976E-03 -0.30743478033E-01  0.31919902090E-01  0.00000000000E+00 0.  1.
       22    1    1    2    0    0 -0.36775293276E-02 -0.11722966616E-02 -0.10306294196E-02  0.39950842818E-02  0.00000000000E+00 0.  1.
</event>
<event>
 5   0  0.1118918E+07  0.9118800E+02  0.7546771E-02  0.1180000E+00
      -11   -1    0    0    0    0  0.00000000000E+00  0.00000000000E+00  0.34996269501E-01  0.35000000000E-01  0.51099999109E-03 0.  1.
       11   -1    0    0    0    0 -0.00000000000E+00 -0.00000000000E+00 -0.34996269501E-01  0.35000000000E-01  0.51099999109E-03 0. -1.
       22    1    1    2    0    0  0.92327890997E-03 -0.95330427129E-04  0.34423846607E-01  0.34436357923E-01  0.00000000000E+00 0.  1.
       22    1    1    2    0    0 -0.71022467418E-03 -0.64028096988E-04 -0.34958856159E-01  0.34966128505E-01  0.00000000000E+00 0. -1.
       22    1    1    2    0    0 -0.21305423579E-03  0.15935852412E-03  0.53500955262E-03  0.59751357138E-03  0.00000000000E+00 0. -1.
</event>
<event>
 5   0  0.1118918E+07  0.9118800E+02  0.7546771E-02  0.1180000E+00
      -11   -1    0    0    0    0  0.00000000000E+00  0.00000000000E+00  0.34996269501E-01  0.35000000000E-01  0.51099999109E-03 0.  1.
       11   -1    0    0    0    0 -0.00000000000E+00 -0.00000000000E+00 -0.34996269501E-01  0.35000000000E-01  0.51099999109E-03 0. -1.
       22    1    1    2    0    0  0.16966214197E-01 -0.28520474149E-01 -0.10668973607E-01  0.34858239595E-01  0.00000000000E+00 0. -1.
       22    1    1    2    0    0 -0.74354563826E-04 -0.40171509217E-04  0.39745246605E-03  0.40633830005E-03  0.00000000000E+00 0. -1.
       22    1    1    2    0    0 -0.16891859633E-01  0.28560645658E-01  0.10271521141E-01  0.34735422105E-01  0.00000000000E+00 0.  1.
</event>
<event>
 5   0  0.1118918E+07  0.9118800E+02  0.7546771E-02  0.1180000E+00
      -11   -1    0    0    0    0  0.00000000000E+00  0.00000000000E+00  0.34996269501E-01  0.35000000000E-01  0.51099999109E-03 0. -1.
       11   -1    0    0    0    0 -0.00000000000E+00 -0.00000000000E+00 -0.34996269501E-01  0.35000000000E-01  0.51099999109E-03 0.  1.
       22    1    1    2    0    0 -0.20947696558E-02 -0.15177861248E-03 -0.34086850233E-01  0.34151492727E-01  0.00000000000E+00 0.  1.
       22    1    1    2    0    0  0.28700657879E-02  0.27144846814E-02  0.32493700401E-01  0.32732953891E-01  0.00000000000E+00 0. -1.
       22    1    1    2    0    0 -0.77529613211E-03 -0.25627060689E-02  0.15931498321E-02  0.31155533819E-02  0.00000000000E+00 0.  1.
</event>
<event>
 5   0  0.1118918E+07  0.9118800E+02  0.7546771E-02  0.1180000E+00
      -11   -1    0    0    0    0  0.00000000000E+00  0.00000000000E+00  0.34996269501E-01  0.35000000000E-01  0.51099999109E-03 0. -1.
       11   -1    0    0    0    0 -0.00000000000E+00 -0.00000000000E+00 -0.34996269501E-01  0.35000000000E-01  0.51099999109E-03 0.  1.
       22    1    1    2    0    0 -0.31808512739E-01  0.11072441562E-01  0.53400447551E-03  0.33684797841E-01  0.00000000000E+00 0.  1.
       22    1    1    2    0    0 -0.51782443619E-03  0.49060163197E-03  0.17674895067E-02  0.19060040043E-02  0.00000000000E+00 0.  1.
       22    1    1    2    0    0  0.32326337175E-01 -0.11563043194E-01 -0.23014939822E-02  0.34409198154E-01  0.00000000000E+00 0. -1.
</event>
<event>
 5   0  0.1118918E+07  0.9118800E+02  0.7546771E-02  0.1180000E+00
      -11   -1    0    0    0    0  0.00000000000E+00  0.00000000000E+00  0.34996269501E-01  0.35000000000E-01  0.51099999109E-03 0. -1.
       11   -1    0    0    0    0 -0.00000000000E+00 -0.00000000000E+00 -0.34996269501E-01  0.35000000000E-01  0.51099999109E-03 0.  1.
       22    1    1    2    0    0 -0.83133826502E-03 -0.11920750396E-02 -0.34969736511E-01  0.34999923398E-01  0.00000000000E+00 0.  1.
       22    1    1    2    0    0  0.44734616000E-04  0.55503771649E-04  0.12614603980E-02  0.12634730667E-02  0.00000000000E+00 0. -1.
       22    1    1    2    0    0  0.78660364902E-03  0.11365712680E-02  0.33708276113E-01  0.33736603535E-01  0.00000000000E+00 0. -1.
</event>
<event>
 5   0  0.1118918E+07  0.9118800E+02  0.7546771E-02  0.1180000E+00
      -11   -1    0    0    0    0  0.00000000000E+00  0.00000000000E+00  0.34996269501E-01  0.35000000000E-01  0.51099999109E-03 0. -1.
       11   -1    0    0    0    0 -0.00000000000E+00 -0.00000000000E+00 -0.34996269501E-01  0.35000000000E-01  0.51099999109E-03 0.  1.
       22    1    1    2    0    0  0.67921065093E-02 -0.97922161787E-02  0.32744274351E-01  0.34845483370E-01  0.00000000000E+00 0. -1.
       22    1    1    2    0    0 -0.63608541114E-02  0.10170395742E-01 -0.32207718171E-01  0.34369092574E-01  0.00000000000E+00 0.  1.
       22    1    1    2    0    0 -0.43125239784E-03 -0.37817956380E-03 -0.53655618054E-03  0.78542405616E-03  0.00000000000E+00 0.  1.
</event>
<event>
 5   0  0.1118918E+07  0.9118800E+02  0.7546771E-02  0.1180000E+00
      -11   -1    0    0    0    0  0.00000000000E+00  0.00000000000E+00  0.34996269501E-01  0.35000000000E-01  0.51099999109E-03 0. -1.
       11   -1    0    0    0    0 -0.00000000000E+00 -0.00000000000E+00 -0.34996269501E-01  0.35000000000E-01  0.51099999109E-03 0.  1.
       22    1    1    2    0    0 -0.17809348713E-02 -0.16819902869E-01  0.30623666547E-01  0.34984136610E-01  0.00000000000E+00 0. -1.
       22    1    1    2    0    0  0.17952989437E-02  0.16799124292E-01 -0.30637547644E-01  0.34987040471E-01  0.00000000000E+00 0.  1.
       22    1    1    2    0    0 -0.14364072457E-04  0.20778576484E-04  0.13881096986E-04  0.28822919210E-04  0.00000000000E+00 0.  1.
</event>
<event>
 5   0  0.1118918E+07  0.9118800E+02  0.7546771E-02  0.1180000E+00
      -11   -1    0    0    0    0  0.00000000000E+00  0.00000000000E+00  0.34996269501E-01  0.35000000000E-01  0.51099999109E-03 0. -1.
       11   -1    0    0    0    0 -0.00000000000E+00 -0.00000000000E+00 -0.34996269501E-01  0.35000000000E-01  0.51099999109E-03 0.  1.
       22    1    1    2    0    0 -0.39869080441E-02 -0.10567013424E-01  0.22858639244E-01  0.25496560484E-01  0.00000000000E+00 0. -1.
       22    1    1    2    0    0  0.32953859351E-02  0.10319409928E-01 -0.32796097080E-01  0.34538873366E-01  0.00000000000E+00 0.  1.
       22    1    1    2    0    0  0.69152210898E-03  0.24760349658E-03  0.99374578360E-02  0.99645661501E-02  0.00000000000E+00 0. -1.
</event>
<event>
 5   0  0.1118918E+07  0.9118800E+02  0.7546771E-02  0.1180000E+00
      -11   -1    0    0    0    0  0.00000000000E+00  0.00000000000E+00  0.34996269501E-01  0.35000000000E-01  0.51099999109E-03 0.  1.
       11   -1    0    0    0    0 -0.00000000000E+00 -0.00000000000E+00 -0.34996269501E-01  0.35000000000E-01  0.51099999109E-03 0. -1.
       22    1    1    2    0    0  0.11252725094E-02 -0.11732074216E-01  0.16865542313E-01  0.20575575839E-01  0.00000000000E+00 0. -1.
       22    1    1    2    0    0  0.16846415561E-02  0.17295246490E-01  0.11200946475E-01  0.20674253802E-01  0.00000000000E+00 0.  1.
       22    1    1    2    0    0 -0.28099140655E-02 -0.55631722739E-02 -0.28066488788E-01  0.28750170359E-01  0.00000000000E+00 0. -1.
</event>
<event>
 5   0  0.1118918E+07  0.9118800E+02  0.7546771E-02  0.1180000E+00
      -11   -1    0    0    0    0  0.00000000000E+00  0.00000000000E+00  0.34996269501E-01  0.35000000000E-01  0.51099999109E-03 0. -1.
       11   -1    0    0    0    0 -0.00000000000E+00 -0.00000000000E+00 -0.34996269501E-01  0.35000000000E-01  0.51099999109E-03 0.  1.
       22    1    1    2    0    0 -0.22891160210E-04 -0.13094047386E-02  0.16845911673E-01  0.16896739474E-01  0.00000000000E+00 0. -1.
       22    1    1    2    0    0 -0.49135107089E-03  0.18756135275E-02 -0.34939628037E-01  0.34993384509E-01  0.00000000000E+00 0.  1.
       22    1    1    2    0    0  0.51424223110E-03 -0.56620878888E-03  0.18093716365E-01  0.18109876017E-01  0.00000000000E+00 0. -1.
</event>
<event>
 5   0  0.1118918E+07  0.9118800E+02  0.7546771E-02  0.1180000E+00
      -11   -1    0    0    0    0  0.00000000000E+00  0.00000000000E+00  0.34996269501E-01  0.35000000000E-01  0.51099999109E-03 0.  1.
       11   -1    0    0    0    0 -0.00000000000E+00 -0.00000000000E+00 -0.34996269501E-01  0.35000000000E-01  0.51099999109E-03 0. -1.
       22    1    1    2    0    0  0.13422058006E-03 -0.77049342004E-04  0.40341451832E-03  0.43208221302E-03  0.00000000000E+00 0.  1.
       22    1    1    2    0    0  0.45907264598E-05 -0.40309276334E-03 -0.34982698932E-01  0.34985021501E-01  0.00000000000E+00 0. -1.
       22    1    1    2    0    0 -0.13881130652E-03  0.48014210535E-03  0.34579284413E-01  0.34582896286E-01  0.00000000000E+00 0.  1.
</event>
<event>
 5   0  0.1118918E+07  0.9118800E+02  0.7546771E-02  0.1180000E+00
      -11   -1    0    0    0    0  0.00000000000E+00  0.00000000000E+00  0.34996269501E-01  0.35000000000E-01  0.51099999109E-03 0.  1.
       11   -1    0    0    0    0 -0.00000000000E+00 -0.00000000000E+00 -0.34996269501E-01  0.35000000000E-01  0.51099999109E-03 0.  1.
       22    1    1    2    0    0 -0.41677901666E-03 -0.20285446689E-03  0.71724739385E-04  0.46904063971E-03  0.00000000000E+00 0. -1.
       22    1    1    2    0    0  0.13754519386E-04  0.18284999289E-03  0.34728205555E-01  0.34728689644E-01  0.00000000000E+00 0.  1.
       22    1    1    2    0    0  0.40302449727E-03  0.20004473995E-04 -0.34799930294E-01  0.34802269716E-01  0.00000000000E+00 0.  1.
</event>
<event>
 5   0  0.1118918E+07  0.9118800E+02  0.7546771E-02  0.1180000E+00
      -11   -1    0    0    0    0  0.00000000000E+00  0.00000000000E+00  0.34996269501E-01  0.35000000000E-01  0.51099999109E-03 0.  1.
       11   -1    0    0    0    0 -0.00000000000E+00 -0.00000000000E+00 -0.34996269501E-01  0.35000000000E-01  0.51099999109E-03 0. -1.
       22    1    1    2    0    0  0.57024562183E-03  0.68166198644E-03 -0.34911274257E-01  0.34922584574E-01  0.00000000000E+00 0. -1.
       22    1    1    2    0    0 -0.23753990395E-03 -0.76121871577E-03  0.34616970506E-01  0.34626153788E-01  0.00000000000E+00 0.  1.
       22    1    1    2    0    0 -0.33270571788E-03  0.79556729333E-04  0.29430375014E-03  0.45126163723E-03  0.00000000000E+00 0.  1.
</event>
