<event>
 5   0  0.1023519E+07  0.9118800E+02  0.7546771E-02  0.1180000E+00
      -11   -1    0    0    0    0  0.00000000000E+00  0.00000000000E+00  0.34996269501E-01  0.35000000000E-01  0.51099999109E-03 0. -1.
       11   -1    0    0    0    0 -0.00000000000E+00 -0.00000000000E+00 -0.34996269501E-01  0.35000000000E-01  0.51099999109E-03 0.  1.
       22    1    1    2    0    0  0.97619133492E-02  0.56420803856E-02  0.33133669383E-01  0.34999543856E-01  0.00000000000E+00 0. -1.
       22    1    1    2    0    0  0.35606109171E-06 -0.15325702966E-06  0.34011456043E-06  0.51569868371E-06  0.00000000000E+00 0.  1.
       22    1    1    2    0    0 -0.97622694103E-02 -0.56419271285E-02 -0.33134009498E-01  0.34999940445E-01  0.00000000000E+00 0.  1.
</event>
<event>
 5   0  0.1023519E+07  0.9118800E+02  0.7546771E-02  0.1180000E+00
      -11   -1    0    0    0    0  0.00000000000E+00  0.00000000000E+00  0.34996269501E-01  0.35000000000E-01  0.51099999109E-03 0.  1.
       11   -1    0    0    0    0 -0.00000000000E+00 -0.00000000000E+00 -0.34996269501E-01  0.35000000000E-01  0.51099999109E-03 0. -1.
       22    1    1    2    0    0  0.34816177755E-02  0.16110075266E-02 -0.34664443826E-01  0.34876075945E-01  0.00000000000E+00 0. -1.
       22    1    1    2    0    0  0.34751024088E-03 -0.14043311798E-02  0.16259968141E-01  0.16324199012E-01  0.00000000000E+00 0.  1.
       22    1    1    2    0    0 -0.38291280164E-02 -0.20667634683E-03  0.18404475685E-01  0.18799725043E-01  0.00000000000E+00 0.  1.
</event>
<event>
 5   0  0.1023519E+07  0.9118800E+02  0.7546771E-02  0.1180000E+00
      -11   -1    0    0    0    0  0.00000000000E+00  0.00000000000E+00  0.34996269501E-01  0.35000000000E-01  0.51099999109E-03 0.  1.
       11   -1    0    0    0    0 -0.00000000000E+00 -0.00000000000E+00 -0.34996269501E-01  0.35000000000E-01  0.51099999109E-03 0. -1.
       22    1    1    2    0    0 -0.72236463666E-03  0.24594542887E-03  0.34495664194E-01  0.34504103350E-01  0.00000000000E+00 0.  1.
       22    1    1    2    0    0  0.32958031887E-03 -0.38593745739E-04 -0.34896221593E-01  0.34897799274E-01  0.00000000000E+00 0. -1.
       22    1    1    2    0    0  0.39278431779E-03 -0.20735168313E-03  0.40055739914E-03  0.59809737569E-03  0.00000000000E+00 0. -1.
</event>
<event>
 5   0  0.1061244E+07  0.9118800E+02  0.7546771E-02  0.1180000E+00
      -11   -1    0    0    0    0  0.00000000000E+00  0.00000000000E+00  0.34996269501E-01  0.35000000000E-01  0.51099999109E-03 0.  1.
       11   -1    0    0    0    0 -0.00000000000E+00 -0.00000000000E+00 -0.34996269501E-01  0.35000000000E-01  0.51099999109E-03 0. -1.
       22    1    1    2    0    0  0.17504376767E-05 -0.13561699343E-06  0.83555953563E-04  0.83574396796E-04  0.00000000000E+00 0.  1.
       22    1    1    2    0    0 -0.44844727834E-03  0.13079466671E-01 -0.32457906746E-01  0.34996989352E-01  0.00000000000E+00 0. -1.
       22    1    1    2    0    0  0.44669684066E-03 -0.13079331054E-01  0.32374350792E-01  0.34919436251E-01  0.00000000000E+00 0.  1.
</event>
<event>
 5   0  0.1023519E+07  0.9118800E+02  0.7546771E-02  0.1180000E+00
      -11   -1    0    0    0    0  0.00000000000E+00  0.00000000000E+00  0.34996269501E-01  0.35000000000E-01  0.51099999109E-03 0. -1.
       11   -1    0    0    0    0 -0.00000000000E+00 -0.00000000000E+00 -0.34996269501E-01  0.35000000000E-01  0.51099999109E-03 0.  1.
       22    1    1    2    0    0 -0.42677850066E-04 -0.85615251759E-05  0.14750278260E-03  0.15379131794E-03  0.00000000000E+00 0.  1.
       22    1    1    2    0    0  0.73295495168E-03 -0.60383070991E-04 -0.34989539013E-01  0.34997267170E-01  0.00000000000E+00 0.  1.
       22    1    1    2    0    0 -0.69027710161E-03  0.68944596167E-04  0.34842036230E-01  0.34848941512E-01  0.00000000000E+00 0. -1.
</event>
<event>
 5   0  0.1023519E+07  0.9118800E+02  0.7546771E-02  0.1180000E+00
      -11   -1    0    0    0    0  0.00000000000E+00  0.00000000000E+00  0.34996269501E-01  0.35000000000E-01  0.51099999109E-03 0. -1.
       11   -1    0    0    0    0 -0.00000000000E+00 -0.00000000000E+00 -0.34996269501E-01  0.35000000000E-01  0.51099999109E-03 0.  1.
       22    1    1    2    0    0  0.39800969524E-03  0.22470367659E-02 -0.13332678181E-02  0.26429508167E-02  0.00000000000E+00 0. -1.
       22    1    1    2    0    0 -0.18260459244E-01 -0.23512842673E-01  0.18172035135E-01  0.34878661146E-01  0.00000000000E+00 0. -1.
       22    1    1    2    0    0  0.17862449549E-01  0.21265805907E-01 -0.16838767317E-01  0.32478388038E-01  0.00000000000E+00 0.  1.
</event>
<event>
 5   0  0.1023519E+07  0.9118800E+02  0.7546771E-02  0.1180000E+00
      -11   -1    0    0    0    0  0.00000000000E+00  0.00000000000E+00  0.34996269501E-01  0.35000000000E-01  0.51099999109E-03 0.  1.
       11   -1    0    0    0    0 -0.00000000000E+00 -0.00000000000E+00 -0.34996269501E-01  0.35000000000E-01  0.51099999109E-03 0. -1.
       22    1    1    2    0    0  0.12656403970E-01  0.10488512803E-01  0.30875056511E-01  0.34978029917E-01  0.00000000000E+00 0.  1.
       22    1    1    2    0    0  0.55729239454E-04 -0.15223038774E-04 -0.14661747767E-03  0.15758862205E-03  0.00000000000E+00 0. -1.
       22    1    1    2    0    0 -0.12712133210E-01 -0.10473289764E-01 -0.30728439034E-01  0.34864381461E-01  0.00000000000E+00 0. -1.
</event>
<event>
 5   0  0.1023519E+07  0.9118800E+02  0.7546771E-02  0.1180000E+00
      -11   -1    0    0    0    0  0.00000000000E+00  0.00000000000E+00  0.34996269501E-01  0.35000000000E-01  0.51099999109E-03 0.  1.
       11   -1    0    0    0    0 -0.00000000000E+00 -0.00000000000E+00 -0.34996269501E-01  0.35000000000E-01  0.51099999109E-03 0. -1.
       22    1    1    2    0    0  0.42348340927E-03  0.27191728670E-02  0.34840746744E-01  0.34949261407E-01  0.00000000000E+00 0.  1.
       22    1    1    2    0    0  0.26877548181E-03 -0.26839019780E-03 -0.19220469778E-01  0.19224222534E-01  0.00000000000E+00 0. -1.
       22    1    1    2    0    0 -0.69225889108E-03 -0.24507826692E-02 -0.15620276966E-01  0.15826516058E-01  0.00000000000E+00 0. -1.
</event>
<event>
 5   0  0.1023519E+07  0.9118800E+02  0.7546771E-02  0.1180000E+00
      -11   -1    0    0    0    0  0.00000000000E+00  0.00000000000E+00  0.34996269501E-01  0.35000000000E-01  0.51099999109E-03 0.  1.
       11   -1    0    0    0    0 -0.00000000000E+00 -0.00000000000E+00 -0.34996269501E-01  0.35000000000E-01  0.51099999109E-03 0.  1.
       22    1    1    2    0    0  0.31121519110E-03 -0.39137598759E-04 -0.39659833271E-03  0.50564501809E-03  0.00000000000E+00 0.  1.
       22    1    1    2    0    0 -0.18669738195E-02  0.17088450380E-03  0.34902666455E-01  0.34952981538E-01  0.00000000000E+00 0.  1.
       22    1    1    2    0    0  0.15557586284E-02 -0.13174690504E-03 -0.34506068122E-01  0.34541373444E-01  0.00000000000E+00 0.  1.
</event>
<event>
 5   0  0.1023519E+07  0.9118800E+02  0.7546771E-02  0.1180000E+00
      -11   -1    0    0    0    0  0.00000000000E+00  0.00000000000E+00  0.34996269501E-01  0.35000000000E-01  0.51099999109E-03 0.  1.
       11   -1    0    0    0    0 -0.00000000000E+00 -0.00000000000E+00 -0.34996269501E-01  0.35000000000E-01  0.51099999109E-03 0. -1.
       22    1    1    2    0    0 -0.12902932992E-01 -0.18402386729E-01 -0.26808641764E-01  0.34983378773E-01  0.00000000000E+00 0. -1.
       22    1    1    2    0    0  0.12901801800E-01  0.18399821323E-01  0.26659473675E-01  0.34867426791E-01  0.00000000000E+00 0.  1.
       22    1    1    2    0    0  0.11311915549E-05  0.25654058271E-05  0.14916808920E-03  0.14919443601E-03  0.00000000000E+00 0.  1.
</event>
<event>
 5   0  0.1023519E+07  0.9118800E+02  0.7546771E-02  0.1180000E+00
      -11   -1    0    0    0    0  0.00000000000E+00  0.00000000000E+00  0.34996269501E-01  0.35000000000E-01  0.51099999109E-03 0.  1.
       11   -1    0    0    0    0 -0.00000000000E+00 -0.00000000000E+00 -0.34996269501E-01  0.35000000000E-01  0.51099999109E-03 0. -1.
       22    1    1    2    0    0 -0.32608982978E-02  0.20534396849E-02  0.11671426220E-01  0.12291145685E-01  0.00000000000E+00 0.  1.
       22    1    1    2    0    0 -0.56939847645E-03  0.28282135408E-03  0.22869212877E-01  0.22878048434E-01  0.00000000000E+00 0.  1.
       22    1    1    2    0    0  0.38302967742E-02 -0.23362610390E-02 -0.34540639097E-01  0.34830805880E-01  0.00000000000E+00 0. -1.
</event>
<event>
 5   0  0.1023519E+07  0.9118800E+02  0.7546771E-02  0.1180000E+00
      -11   -1    0    0    0    0  0.00000000000E+00  0.00000000000E+00  0.34996269501E-01  0.35000000000E-01  0.51099999109E-03 0. -1.
       11   -1    0    0    0    0 -0.00000000000E+00 -0.00000000000E+00 -0.34996269501E-01  0.35000000000E-01  0.51099999109E-03 0.  1.
       22    1    1    2    0    0  0.12013744999E-02 -0.31828529290E-02 -0.34832272410E-01  0.34998015011E-01  0.00000000000E+00 0.  1.
       22    1    1    2    0    0 -0.12146816991E-02  0.31840432759E-02  0.34157333446E-01  0.34326913805E-01  0.00000000000E+00 0. -1.
       22    1    1    2    0    0  0.13307199192E-04 -0.11903468778E-05  0.67493896380E-03  0.67507118390E-03  0.00000000000E+00 0.  1.
</event>
<event>
 5   0  0.1023519E+07  0.9118800E+02  0.7546771E-02  0.1180000E+00
      -11   -1    0    0    0    0  0.00000000000E+00  0.00000000000E+00  0.34996269501E-01  0.35000000000E-01  0.51099999109E-03 0. -1.
       11   -1    0    0    0    0 -0.00000000000E+00 -0.00000000000E+00 -0.34996269501E-01  0.35000000000E-01  0.51099999109E-03 0.  1.
       22    1    1    2    0    0 -0.50132795946E-02 -0.49036255296E-02  0.34288686431E-01  0.34998464720E-01  0.00000000000E+00 0. -1.
       22    1    1    2    0    0 -0.22772336961E-05  0.16032045403E-05  0.18167151300E-06  0.27908892209E-05  0.00000000000E+00 0. -1.
       22    1    1    2    0    0  0.50155568283E-02  0.49020223250E-02 -0.34288868102E-01  0.34998744390E-01  0.00000000000E+00 0.  1.
</event>
<event>
 5   0  0.1023519E+07  0.9118800E+02  0.7546771E-02  0.1180000E+00
      -11   -1    0    0    0    0  0.00000000000E+00  0.00000000000E+00  0.34996269501E-01  0.35000000000E-01  0.51099999109E-03 0. -1.
       11   -1    0    0    0    0 -0.00000000000E+00 -0.00000000000E+00 -0.34996269501E-01  0.35000000000E-01  0.51099999109E-03 0.  1.
       22    1    1    2    0    0 -0.12506393740E-01  0.13542719066E-01 -0.29572920541E-01  0.34847851489E-01  0.00000000000E+00 0.  1.
       22    1    1    2    0    0 -0.30655009646E-04 -0.20425939674E-03 -0.14246424182E-03  0.25091371220E-03  0.00000000000E+00 0. -1.
       22    1    1    2    0    0  0.12537048749E-01 -0.13338459669E-01  0.29715384783E-01  0.34901234799E-01  0.00000000000E+00 0. -1.
</event>
<event>
 5   0  0.1023519E+07  0.9118800E+02  0.7546771E-02  0.1180000E+00
      -11   -1    0    0    0    0  0.00000000000E+00  0.00000000000E+00  0.34996269501E-01  0.35000000000E-01  0.51099999109E-03 0. -1.
       11   -1    0    0    0    0 -0.00000000000E+00 -0.00000000000E+00 -0.34996269501E-01  0.35000000000E-01  0.51099999109E-03 0.  1.
       22    1    1    2    0    0 -0.29050893573E-03  0.11064629857E-02 -0.19226576808E-02  0.22372457035E-02  0.00000000000E+00 0.  1.
       22    1    1    2    0    0 -0.36487966429E-03 -0.11477992079E-02  0.34829020986E-01  0.34849839067E-01  0.00000000000E+00 0. -1.
       22    1    1    2    0    0  0.65538860002E-03  0.41336222215E-04 -0.32906363305E-01  0.32912915229E-01  0.00000000000E+00 0.  1.
</event>
<event>
 5   0  0.1023519E+07  0.9118800E+02  0.7546771E-02  0.1180000E+00
      -11   -1    0    0    0    0  0.00000000000E+00  0.00000000000E+00  0.34996269501E-01  0.35000000000E-01  0.51099999109E-03 0. -1.
       11   -1    0    0    0    0 -0.00000000000E+00 -0.00000000000E+00 -0.34996269501E-01  0.35000000000E-01  0.51099999109E-03 0.  1.
       22    1    1    2    0    0 -0.27258540455E-04  0.52333312026E-05  0.13005773957E-03  0.13298658355E-03  0.00000000000E+00 0.  1.
       22    1    1    2    0    0 -0.27252819316E-01  0.19706000019E-01  0.93401588957E-02  0.34903884678E-01  0.00000000000E+00 0. -1.
       22    1    1    2    0    0  0.27280077857E-01 -0.19711233350E-01 -0.94702166353E-02  0.34963128738E-01  0.00000000000E+00 0.  1.
</event>
<event>
 5   0  0.1023519E+07  0.9118800E+02  0.7546771E-02  0.1180000E+00
      -11   -1    0    0    0    0  0.00000000000E+00  0.00000000000E+00  0.34996269501E-01  0.35000000000E-01  0.51099999109E-03 0.  1.
       11   -1    0    0    0    0 -0.00000000000E+00 -0.00000000000E+00 -0.34996269501E-01  0.35000000000E-01  0.51099999109E-03 0. -1.
       22    1    1    2    0    0 -0.57522579056E-02 -0.17577882563E-01  0.29694382054E-01  0.34983235299E-01  0.00000000000E+00 0.  1.
       22    1    1    2    0    0 -0.98592028389E-05  0.71993479820E-05  0.17097752899E-04  0.21008751657E-04  0.00000000000E+00 0.  1.
       22    1    1    2    0    0  0.57621171085E-02  0.17570683215E-01 -0.29711479807E-01  0.34995755950E-01  0.00000000000E+00 0. -1.
</event>
<event>
 5   0  0.1362356E+07  0.9118800E+02  0.7546771E-02  0.1180000E+00
      -11   -1    0    0    0    0  0.00000000000E+00  0.00000000000E+00  0.34996269501E-01  0.35000000000E-01  0.51099999109E-03 0.  1.
       11   -1    0    0    0    0 -0.00000000000E+00 -0.00000000000E+00 -0.34996269501E-01  0.35000000000E-01  0.51099999109E-03 0. -1.
       22    1    1    2    0    0 -0.57530877108E-02 -0.17568398629E-01 -0.29394514248E-01  0.34724402320E-01  0.00000000000E+00 0. -1.
       22    1    1    2    0    0 -0.13509662854E-05 -0.24030079507E-04 -0.29112149433E-03  0.29211469373E-03  0.00000000000E+00 0. -1.
       22    1    1    2    0    0  0.57544386770E-02  0.17592428709E-01  0.29685635743E-01  0.34983482986E-01  0.00000000000E+00 0.  1.
</event>
<event>
 5   0  0.1023519E+07  0.9118800E+02  0.7546771E-02  0.1180000E+00
      -11   -1    0    0    0    0  0.00000000000E+00  0.00000000000E+00  0.34996269501E-01  0.35000000000E-01  0.51099999109E-03 0.  1.
       11   -1    0    0    0    0 -0.00000000000E+00 -0.00000000000E+00 -0.34996269501E-01  0.35000000000E-01  0.51099999109E-03 0.  1.
       22    1    1    2    0    0 -0.00000000000E+00  0.00000000000E+00  0.28460448093E-01  0.28458415196E-01  0.00000000000E+00 0.  1.
       22    1    1    2    0    0  0.22878851714E-02  0.15763500443E-02 -0.34647822735E-01  0.34759040814E-01  0.00000000000E+00 0.  1.
       22    1    1    2    0    0 -0.22878851714E-02 -0.15763500443E-02  0.61873746416E-02  0.67825439899E-02  0.00000000000E+00 0. -1.
</event>
<event>
 5   0  0.1023519E+07  0.9118800E+02  0.7546771E-02  0.1180000E+00
      -11   -1    0    0    0    0  0.00000000000E+00  0.00000000000E+00  0.34996269501E-01  0.35000000000E-01  0.51099999109E-03 0.  1.
       11   -1    0    0    0    0 -0.00000000000E+00 -0.00000000000E+00 -0.34996269501E-01  0.35000000000E-01  0.51099999109E-03 0. -1.
       22    1    1    2    0    0 -0.31158572549E-01 -0.38637311482E-02  0.15463362604E-01  0.34998580610E-01  0.00000000000E+00 0.  1.
       22    1    1    2    0    0  0.39053428504E-06 -0.76590108606E-06  0.20302880191E-05  0.22048108630E-05  0.00000000000E+00 0.  1.
       22    1    1    2    0    0  0.31158182015E-01  0.38644970493E-02 -0.15465392892E-01  0.34999214580E-01  0.00000000000E+00 0. -1.
</event>
<event>
 5   0  0.1023519E+07  0.9118800E+02  0.7546771E-02  0.1180000E+00
      -11   -1    0    0    0    0  0.00000000000E+00  0.00000000000E+00  0.34996269501E-01  0.35000000000E-01  0.51099999109E-03 0. -1.
       11   -1    0    0    0    0 -0.00000000000E+00 -0.00000000000E+00 -0.34996269501E-01  0.35000000000E-01  0.51099999109E-03 0.  1.
       22    1    1    2    0    0  0.14853466159E-01 -0.22313575344E-01  0.78998067826E-02  0.27945089887E-01  0.00000000000E+00 0.  1.
       22    1    1    2    0    0 -0.60747548044E-02  0.24641472754E-01 -0.15902644563E-01  0.29949940393E-01  0.00000000000E+00 0. -1.
       22    1    1    2    0    0 -0.87787113546E-02 -0.23278974100E-02  0.80028377802E-02  0.12104969721E-01  0.00000000000E+00 0. -1.
</event>
<event>
 5   0  0.1023519E+07  0.9118800E+02  0.7546771E-02  0.1180000E+00
      -11   -1    0    0    0    0  0.00000000000E+00  0.00000000000E+00  0.34996269501E-01  0.35000000000E-01  0.51099999109E-03 0. -1.
       11   -1    0    0    0    0 -0.00000000000E+00 -0.00000000000E+00 -0.34996269501E-01  0.35000000000E-01  0.51099999109E-03 0.  1.
       22    1    1    2    0    0  0.56228803277E-05  0.22366378780E-05  0.18170094834E-06  0.60541182191E-05  0.00000000000E+00 0. -1.
       22    1    1    2    0    0 -0.10118928368E-02  0.86344312768E-03 -0.34971827927E-01  0.34997117162E-01  0.00000000000E+00 0.  1.
       22    1    1    2    0    0  0.10062699565E-02 -0.86567976556E-03  0.34971646226E-01  0.34996828719E-01  0.00000000000E+00 0. -1.
</event>
<event>
 5   0  0.1023519E+07  0.9118800E+02  0.7546771E-02  0.1180000E+00
      -11   -1    0    0    0    0  0.00000000000E+00  0.00000000000E+00  0.34996269501E-01  0.35000000000E-01  0.51099999109E-03 0.  1.
       11   -1    0    0    0    0 -0.00000000000E+00 -0.00000000000E+00 -0.34996269501E-01  0.35000000000E-01  0.51099999109E-03 0. -1.
       22    1    1    2    0    0 -0.70823045227E-02 -0.25632372270E-02  0.24354470437E-01  0.25492537196E-01  0.00000000000E+00 0.  1.
       22    1    1    2    0    0  0.63094531986E-02  0.28413864891E-02 -0.34065782772E-01  0.34761476273E-01  0.00000000000E+00 0. -1.
       22    1    1    2    0    0  0.77285132416E-03 -0.27814926206E-03  0.97113123354E-02  0.97459865307E-02  0.00000000000E+00 0.  1.
</event>
<event>
 5   0  0.1023519E+07  0.9118800E+02  0.7546771E-02  0.1180000E+00
      -11   -1    0    0    0    0  0.00000000000E+00  0.00000000000E+00  0.34996269501E-01  0.35000000000E-01  0.51099999109E-03 0. -1.
       11   -1    0    0    0    0 -0.00000000000E+00 -0.00000000000E+00 -0.34996269501E-01  0.35000000000E-01  0.51099999109E-03 0.  1.
       22    1    1    2    0    0  0.34444064404E-01  0.18524814619E-02  0.59293818190E-02  0.34999754699E-01  0.00000000000E+00 0. -1.
       22    1    1    2    0    0  0.59722085164E-07  0.20266042172E-06  0.30338449408E-06  0.36970275254E-06  0.00000000000E+00 0. -1.
       22    1    1    2    0    0 -0.34444124126E-01 -0.18526841223E-02 -0.59296852035E-02  0.34999875598E-01  0.00000000000E+00 0.  1.
</event>
<event>
 5   0  0.1023519E+07  0.9118800E+02  0.7546771E-02  0.1180000E+00
      -11   -1    0    0    0    0  0.00000000000E+00  0.00000000000E+00  0.34996269501E-01  0.35000000000E-01  0.51099999109E-03 0.  1.
       11   -1    0    0    0    0 -0.00000000000E+00 -0.00000000000E+00 -0.34996269501E-01  0.35000000000E-01  0.51099999109E-03 0. -1.
       22    1    1    2    0    0 -0.26663844233E-02 -0.33997138251E-01 -0.57331819529E-02  0.34580115536E-01  0.00000000000E+00 0. -1.
       22    1    1    2    0    0 -0.51018753038E-03  0.21972546261E-04 -0.51944171504E-03  0.72841870120E-03  0.00000000000E+00 0.  1.
       22    1    1    2    0    0  0.31765719536E-02  0.33975165705E-01  0.62526236679E-02  0.34691465763E-01  0.00000000000E+00 0.  1.
</event>
<event>
 5   0  0.1023519E+07  0.9118800E+02  0.7546771E-02  0.1180000E+00
      -11   -1    0    0    0    0  0.00000000000E+00  0.00000000000E+00  0.34996269501E-01  0.35000000000E-01  0.51099999109E-03 0. -1.
       11   -1    0    0    0    0 -0.00000000000E+00 -0.00000000000E+00 -0.34996269501E-01  0.35000000000E-01  0.51099999109E-03 0.  1.
       22    1    1    2    0    0 -0.26288312058E-03 -0.21589175551E-03 -0.41906785681E-03  0.53975425315E-03  0.00000000000E+00 0.  1.
       22    1    1    2    0    0  0.13076947968E-02 -0.42913637921E-02  0.34639324897E-01  0.34928622907E-01  0.00000000000E+00 0. -1.
       22    1    1    2    0    0 -0.10448116762E-02  0.45072555476E-02 -0.34220257040E-01  0.34531622839E-01  0.00000000000E+00 0.  1.
</event>
<event>
 5   0  0.1023519E+07  0.9118800E+02  0.7546771E-02  0.1180000E+00
      -11   -1    0    0    0    0  0.00000000000E+00  0.00000000000E+00  0.34996269501E-01  0.35000000000E-01  0.51099999109E-03 0. -1.
       11   -1    0    0    0    0 -0.00000000000E+00 -0.00000000000E+00 -0.34996269501E-01  0.35000000000E-01  0.51099999109E-03 0.  1.
       22    1    1    2    0    0 -0.99432390220E-02 -0.17053839740E-02  0.33505280466E-01  0.34991143963E-01  0.00000000000E+00 0. -1.
       22    1    1    2    0    0  0.99301691283E-02  0.17224880651E-02 -0.33504274185E-01  0.34987306451E-01  0.00000000000E+00 0.  1.
       22    1    1    2    0    0  0.13069893712E-04 -0.17104091093E-04 -0.10062804520E-05  0.21549585939E-04  0.00000000000E+00 0. -1.
</event>
<event>
 5   0  0.1023519E+07  0.9118800E+02  0.7546771E-02  0.1180000E+00
      -11   -1    0    0    0    0  0.00000000000E+00  0.00000000000E+00  0.34996269501E-01  0.35000000000E-01  0.51099999109E-03 0.  1.
       11   -1    0    0    0    0 -0.00000000000E+00 -0.00000000000E+00 -0.34996269501E-01  0.35000000000E-01  0.51099999109E-03 0. -1.
       22    1    1    2    0    0 -0.35431614818E-03 -0.22608817562E-03  0.45928533805E-03  0.62257434718E-03  0.00000000000E+00 0. -1.
       22    1    1    2    0    0  0.21765219265E-02 -0.32614832992E-02 -0.34695229976E-01  0.34916092337E-01  0.00000000000E+00 0. -1.
       22    1    1    2    0    0 -0.18222057783E-02  0.34875714749E-02  0.34235944638E-01  0.34461333316E-01  0.00000000000E+00 0.  1.
</event>
<event>
 5   0  0.1023519E+07  0.9118800E+02  0.7546771E-02  0.1180000E+00
      -11   -1    0    0    0    0  0.00000000000E+00  0.00000000000E+00  0.34996269501E-01  0.35000000000E-01  0.51099999109E-03 0. -1.
       11   -1    0    0    0    0 -0.00000000000E+00 -0.00000000000E+00 -0.34996269501E-01  0.35000000000E-01  0.51099999109E-03 0.  1.
       22    1    1    2    0    0  0.15999580976E-01  0.21881669834E-01 -0.22140304846E-01  0.34999816639E-01  0.00000000000E+00 0.  1.
       22    1    1    2    0    0  0.23595039744E-06  0.85453485616E-07  0.10570553502E-06  0.27230231066E-06  0.00000000000E+00 0. -1.
       22    1    1    2    0    0 -0.15999816926E-01 -0.21881755287E-01  0.22140199140E-01  0.34999911058E-01  0.00000000000E+00 0. -1.
</event>
<event>
 5   0  0.1023519E+07  0.9118800E+02  0.7546771E-02  0.1180000E+00
      -11   -1    0    0    0    0  0.00000000000E+00  0.00000000000E+00  0.34996269501E-01  0.35000000000E-01  0.51099999109E-03 0. -1.
       11   -1    0    0    0    0 -0.00000000000E+00 -0.00000000000E+00 -0.34996269501E-01  0.35000000000E-01  0.51099999109E-03 0.  1.
       22    1    1    2    0    0  0.30939660448E-02  0.11723312739E-02  0.33102993429E-01  0.33267929909E-01  0.00000000000E+00 0. -1.
       22    1    1    2    0    0 -0.27151496964E-02 -0.96987123161E-03 -0.34831689109E-01  0.34950811926E-01  0.00000000000E+00 0.  1.
       22    1    1    2    0    0 -0.37881634846E-03 -0.20246004234E-03  0.17286956803E-02  0.17812581648E-02  0.00000000000E+00 0.  1.
</event>
<event>
 5   0  0.1023519E+07  0.9118800E+02  0.7546771E-02  0.1180000E+00
      -11   -1    0    0    0    0  0.00000000000E+00  0.00000000000E+00  0.34996269501E-01  0.35000000000E-01  0.51099999109E-03 0. -1.
       11   -1    0    0    0    0 -0.00000000000E+00 -0.00000000000E+00 -0.34996269501E-01  0.35000000000E-01  0.51099999109E-03 0.  1.
       22    1    1    2    0    0  0.93082002103E-02 -0.11897161599E-01  0.28381182904E-01  0.32150841176E-01  0.00000000000E+00 0. -1.
       22    1    1    2    0    0 -0.87861660951E-02  0.12653428999E-01 -0.78355627951E-02  0.17282998131E-01  0.00000000000E+00 0.  1.
       22    1    1    2    0    0 -0.52203411526E-03 -0.75626740025E-03 -0.20545620109E-01  0.20566160693E-01  0.00000000000E+00 0.  1.
</event>
<event>
 5   0  0.1023519E+07  0.9118800E+02  0.7546771E-02  0.1180000E+00
      -11   -1    0    0    0    0  0.00000000000E+00  0.00000000000E+00  0.34996269501E-01  0.35000000000E-01  0.51099999109E-03 0. -1.
       11   -1    0    0    0    0 -0.00000000000E+00 -0.00000000000E+00 -0.34996269501E-01  0.35000000000E-01  0.51099999109E-03 0.  1.
       22    1    1    2    0    0 -0.87119954762E-08 -0.38945860037E-04  0.14261666209E-04  0.41474995033E-04  0.00000000000E+00 0. -1.
       22    1    1    2    0    0 -0.21618368366E-02 -0.24601068050E-02 -0.34831354225E-01  0.34984981080E-01  0.00000000000E+00 0.  1.
       22    1    1    2    0    0  0.21618455486E-02  0.24990526650E-02  0.34817092559E-01  0.34973543925E-01  0.00000000000E+00 0. -1.
</event>
<event>
 5   0  0.1023519E+07  0.9118800E+02  0.7546771E-02  0.1180000E+00
      -11   -1    0    0    0    0  0.00000000000E+00  0.00000000000E+00  0.34996269501E-01  0.35000000000E-01  0.51099999109E-03 0.  1.
       11   -1    0    0    0    0 -0.00000000000E+00 -0.00000000000E+00 -0.34996269501E-01  0.35000000000E-01  0.51099999109E-03 0. -1.
       22    1    1    2    0    0 -0.16428345023E-01  0.17884431800E-02 -0.30849629482E-01  0.34996981132E-01  0.00000000000E+00 0. -1.
       22    1    1    2    0    0  0.92626352672E-04  0.11532711167E-04  0.28798988387E-03  0.30273886082E-03  0.00000000000E+00 0.  1.
       22    1    1    2    0    0  0.16335718670E-01 -0.17999758912E-02  0.30561639598E-01  0.34700280007E-01  0.00000000000E+00 0.  1.
</event>
<event>
 5   0  0.1023519E+07  0.9118800E+02  0.7546771E-02  0.1180000E+00
      -11   -1    0    0    0    0  0.00000000000E+00  0.00000000000E+00  0.34996269501E-01  0.35000000000E-01  0.51099999109E-03 0.  1.
       11   -1    0    0    0    0 -0.00000000000E+00 -0.00000000000E+00 -0.34996269501E-01  0.35000000000E-01  0.51099999109E-03 0. -1.
       22    1    1    2    0    0  0.16465575840E-01 -0.28393345544E-01 -0.40029213110E-02  0.33065399407E-01  0.00000000000E+00 0.  1.
       22    1    1    2    0    0  0.26784644750E-03 -0.99475555314E-04 -0.31195116102E-02  0.31325691998E-02  0.00000000000E+00 0.  1.
       22    1    1    2    0    0 -0.16733422287E-01  0.28492821099E-01  0.71224329212E-02  0.33802031394E-01  0.00000000000E+00 0. -1.
</event>
<event>
 5   0  0.1023519E+07  0.9118800E+02  0.7546771E-02  0.1180000E+00
      -11   -1    0    0    0    0  0.00000000000E+00  0.00000000000E+00  0.34996269501E-01  0.35000000000E-01  0.51099999109E-03 0.  1.
       11   -1    0    0    0    0 -0.00000000000E+00 -0.00000000000E+00 -0.34996269501E-01  0.35000000000E-01  0.51099999109E-03 0. -1.
       22    1    1    2    0    0 -0.34568658700E-02 -0.71581193445E-02 -0.34084644254E-01  0.34999308109E-01  0.00000000000E+00 0. -1.
       22    1    1    2    0    0  0.34585546397E-02  0.71574862143E-02  0.34084089115E-01  0.34998804836E-01  0.00000000000E+00 0.  1.
       22    1    1    2    0    0 -0.16887697282E-05  0.63313022050E-06  0.55513921722E-06  0.18870550128E-05  0.00000000000E+00 0.  1.
</event>
<event>
 5   0  0.1023519E+07  0.9118800E+02  0.7546771E-02  0.1180000E+00
      -11   -1    0    0    0    0  0.00000000000E+00  0.00000000000E+00  0.34996269501E-01  0.35000000000E-01  0.51099999109E-03 0. -1.
       11   -1    0    0    0    0 -0.00000000000E+00 -0.00000000000E+00 -0.34996269501E-01  0.35000000000E-01  0.51099999109E-03 0.  1.
       22    1    1    2    0    0  0.91431061598E-03 -0.27695731460E-03  0.17266304491E-02  0.19733022993E-02  0.00000000000E+00 0. -1.
       22    1    1    2    0    0 -0.22537455265E-02  0.14919021927E-02 -0.34799561870E-01  0.34904364303E-01  0.00000000000E+00 0.  1.
       22    1    1    2    0    0  0.13394349105E-02 -0.12149448781E-02  0.33072931421E-01  0.33122333398E-01  0.00000000000E+00 0. -1.
</event>
<event>
 5   0  0.1023519E+07  0.9118800E+02  0.7546771E-02  0.1180000E+00
      -11   -1    0    0    0    0  0.00000000000E+00  0.00000000000E+00  0.34996269501E-01  0.35000000000E-01  0.51099999109E-03 0. -1.
       11   -1    0    0    0    0 -0.00000000000E+00 -0.00000000000E+00 -0.34996269501E-01  0.35000000000E-01  0.51099999109E-03 0.  1.
       22    1    1    2    0    0  0.15226598310E-03  0.30494599375E-03 -0.13570663379E-02  0.13992162214E-02  0.00000000000E+00 0.  1.
       22    1    1    2    0    0  0.27067567384E-02  0.10529350320E-02  0.34843885184E-01  0.34964718488E-01  0.00000000000E+00 0. -1.
       22    1    1    2    0    0 -0.28590227215E-02 -0.13578810257E-02 -0.33486818846E-01  0.33636065291E-01  0.00000000000E+00 0.  1.
</event>
<event>
 5   0  0.1023519E+07  0.9118800E+02  0.7546771E-02  0.1180000E+00
      -11   -1    0    0    0    0  0.00000000000E+00  0.00000000000E+00  0.34996269501E-01  0.35000000000E-01  0.51099999109E-03 0. -1.
       11   -1    0    0    0    0 -0.00000000000E+00 -0.00000000000E+00 -0.34996269501E-01  0.35000000000E-01  0.51099999109E-03 0.  1.
       22    1    1    2    0    0 -0.37983869988E-02  0.98127308565E-02  0.33377084205E-01  0.34996388109E-01  0.00000000000E+00 0. -1.
       22    1    1    2    0    0 -0.38102832363E-06 -0.75119751243E-06  0.37360536150E-05  0.38298272677E-05  0.00000000000E+00 0.  1.
       22    1    1    2    0    0  0.37987680272E-02 -0.98119796589E-02 -0.33380820259E-01  0.34999782064E-01  0.00000000000E+00 0.  1.
</event>
<event>
 5   0  0.1023519E+07  0.9118800E+02  0.7546771E-02  0.1180000E+00
      -11   -1    0    0    0    0  0.00000000000E+00  0.00000000000E+00  0.34996269501E-01  0.35000000000E-01  0.51099999109E-03 0.  1.
       11   -1    0    0    0    0 -0.00000000000E+00 -0.00000000000E+00 -0.34996269501E-01  0.35000000000E-01  0.51099999109E-03 0. -1.
       22    1    1    2    0    0 -0.37412419023E-02  0.58742080360E-02  0.30141053507E-01  0.30935195450E-01  0.00000000000E+00 0.  1.
       22    1    1    2    0    0  0.42184612934E-02 -0.62836640450E-02 -0.34164379514E-01  0.34992637470E-01  0.00000000000E+00 0. -1.
       22    1    1    2    0    0 -0.47721939104E-03  0.40945600904E-03  0.40233260069E-02  0.40721670801E-02  0.00000000000E+00 0.  1.
</event>
<event>
 5   0  0.1023519E+07  0.9118800E+02  0.7546771E-02  0.1180000E+00
      -11   -1    0    0    0    0  0.00000000000E+00  0.00000000000E+00  0.34996269501E-01  0.35000000000E-01  0.51099999109E-03 0.  1.
       11   -1    0    0    0    0 -0.00000000000E+00 -0.00000000000E+00 -0.34996269501E-01  0.35000000000E-01  0.51099999109E-03 0. -1.
       22    1    1    2    0    0 -0.24210111762E-01  0.80260619196E-02  0.23379094068E-01  0.34599555213E-01  0.00000000000E+00 0.  1.
       22    1    1    2    0    0  0.11086196288E-03 -0.35091219122E-03 -0.27162552022E-02  0.27410713351E-02  0.00000000000E+00 0.  1.
       22    1    1    2    0    0  0.24099249800E-01 -0.76751497283E-02 -0.20662838866E-01  0.32659373452E-01  0.00000000000E+00 0. -1.
</event>
<event>
 5   0  0.1023519E+07  0.9118800E+02  0.7546771E-02  0.1180000E+00
      -11   -1    0    0    0    0  0.00000000000E+00  0.00000000000E+00  0.34996269501E-01  0.35000000000E-01  0.51099999109E-03 0. -1.
       11   -1    0    0    0    0 -0.00000000000E+00 -0.00000000000E+00 -0.34996269501E-01  0.35000000000E-01  0.51099999109E-03 0.  1.
       22    1    1    2    0    0  0.38640768690E-03 -0.17833315098E-03  0.30821923220E-02  0.31114342550E-02  0.00000000000E+00 0. -1.
       22    1    1    2    0    0  0.15588395054E-02 -0.24527486666E-03 -0.34936493452E-01  0.34972113391E-01  0.00000000000E+00 0.  1.
       22    1    1    2    0    0 -0.19452471923E-02  0.42360801764E-03  0.31854301130E-01  0.31916452354E-01  0.00000000000E+00 0. -1.
</event>
<event>
 5   0  0.1023519E+07  0.9118800E+02  0.7546771E-02  0.1180000E+00
      -11   -1    0    0    0    0  0.00000000000E+00  0.00000000000E+00  0.34996269501E-01  0.35000000000E-01  0.51099999109E-03 0.  1.
       11   -1    0    0    0    0 -0.00000000000E+00 -0.00000000000E+00 -0.34996269501E-01  0.35000000000E-01  0.51099999109E-03 0. -1.
       22    1    1    2    0    0 -0.29797822753E-03  0.16876818025E-03  0.18504118479E-03  0.38924794517E-03  0.00000000000E+00 0. -1.
       22    1    1    2    0    0  0.31673167627E-01 -0.14832641654E-01 -0.44014775795E-03  0.34977000100E-01  0.00000000000E+00 0.  1.
       22    1    1    2    0    0 -0.31375189399E-01  0.14663873474E-01  0.25510657316E-03  0.34633751955E-01  0.00000000000E+00 0. -1.
</event>
<event>
 5   0  0.1023519E+07  0.9118800E+02  0.7546771E-02  0.1180000E+00
      -11   -1    0    0    0    0  0.00000000000E+00  0.00000000000E+00  0.34996269501E-01  0.35000000000E-01  0.51099999109E-03 0. -1.
       11   -1    0    0    0    0 -0.00000000000E+00 -0.00000000000E+00 -0.34996269501E-01  0.35000000000E-01  0.51099999109E-03 0.  1.
       22    1    1    2    0    0 -0.10792557807E-03 -0.16825379175E-03  0.18444553081E-03  0.27198790906E-03  0.00000000000E+00 0. -1.
       22    1    1    2    0    0 -0.13348311145E-02 -0.19589279948E-03  0.34742849837E-01  0.34769034541E-01  0.00000000000E+00 0. -1.
       22    1    1    2    0    0  0.14427566926E-02  0.36414659123E-03 -0.34927295368E-01  0.34958977550E-01  0.00000000000E+00 0.  1.
</event>
<event>
 5   0  0.1023519E+07  0.9118800E+02  0.7546771E-02  0.1180000E+00
      -11   -1    0    0    0    0  0.00000000000E+00  0.00000000000E+00  0.34996269501E-01  0.35000000000E-01  0.51099999109E-03 0.  1.
       11   -1    0    0    0    0 -0.00000000000E+00 -0.00000000000E+00 -0.34996269501E-01  0.35000000000E-01  0.51099999109E-03 0. -1.
       22    1    1    2    0    0  0.48401562192E-03 -0.40647564064E-02  0.34723183078E-01  0.34963637666E-01  0.00000000000E+00 0.  1.
       22    1    1    2    0    0 -0.82039662102E-03  0.40945435362E-02 -0.33726086452E-01  0.33983632012E-01  0.00000000000E+00 0. -1.
       22    1    1    2    0    0  0.33638099910E-03 -0.29787129767E-04 -0.99709662595E-03  0.10527303221E-02  0.00000000000E+00 0. -1.
</event>
<event>
 5   0  0.1023519E+07  0.9118800E+02  0.7546771E-02  0.1180000E+00
      -11   -1    0    0    0    0  0.00000000000E+00  0.00000000000E+00  0.34996269501E-01  0.35000000000E-01  0.51099999109E-03 0. -1.
       11   -1    0    0    0    0 -0.00000000000E+00 -0.00000000000E+00 -0.34996269501E-01  0.35000000000E-01  0.51099999109E-03 0.  1.
       22    1    1    2    0    0 -0.14006852418E-03  0.31150917867E-04  0.62227485255E-02  0.62244026848E-02  0.00000000000E+00 0.  1.
       22    1    1    2    0    0 -0.20681200284E-02  0.31496148010E-01 -0.62203490361E-02  0.32171061563E-01  0.00000000000E+00 0.  1.
       22    1    1    2    0    0  0.22081885526E-02 -0.31527298928E-01 -0.23994894207E-05  0.31604535753E-01  0.00000000000E+00 0. -1.
</event>
<event>
 5   0  0.1023519E+07  0.9118800E+02  0.7546771E-02  0.1180000E+00
      -11   -1    0    0    0    0  0.00000000000E+00  0.00000000000E+00  0.34996269501E-01  0.35000000000E-01  0.51099999109E-03 0. -1.
       11   -1    0    0    0    0 -0.00000000000E+00 -0.00000000000E+00 -0.34996269501E-01  0.35000000000E-01  0.51099999109E-03 0.  1.
       22    1    1    2    0    0 -0.10391655637E-02 -0.27441093146E-02 -0.12910345108E-02  0.32057403369E-02  0.00000000000E+00 0. -1.
       22    1    1    2    0    0  0.14528772098E-01  0.21877667268E-01 -0.21635822445E-01  0.34026847586E-01  0.00000000000E+00 0.  1.
       22    1    1    2    0    0 -0.13489606534E-01 -0.19133557953E-01  0.22926856955E-01  0.32767412077E-01  0.00000000000E+00 0. -1.
</event>
<event>
 5   0  0.1023519E+07  0.9118800E+02  0.7546771E-02  0.1180000E+00
      -11   -1    0    0    0    0  0.00000000000E+00  0.00000000000E+00  0.34996269501E-01  0.35000000000E-01  0.51099999109E-03 0.  1.
       11   -1    0    0    0    0 -0.00000000000E+00 -0.00000000000E+00 -0.34996269501E-01  0.35000000000E-01  0.51099999109E-03 0. -1.
       22    1    1    2    0    0  0.11357728495E-03  0.10366581292E-03  0.30747987173E-04  0.15681785339E-03  0.00000000000E+00 0.  1.
       22    1    1    2    0    0  0.13538993589E-01 -0.45472832350E-03  0.32148348247E-01  0.34885920086E-01  0.00000000000E+00 0.  1.
       22    1    1    2    0    0 -0.13652570874E-01  0.35106251058E-03 -0.32179096234E-01  0.34957262061E-01  0.00000000000E+00 0. -1.
</event>
<event>
 5   0  0.1023519E+07  0.9118800E+02  0.7546771E-02  0.1180000E+00
      -11   -1    0    0    0    0  0.00000000000E+00  0.00000000000E+00  0.34996269501E-01  0.35000000000E-01  0.51099999109E-03 0.  1.
       11   -1    0    0    0    0 -0.00000000000E+00 -0.00000000000E+00 -0.34996269501E-01  0.35000000000E-01  0.51099999109E-03 0. -1.
       22    1    1    2    0    0 -0.86760177341E-02  0.14658889779E-02  0.29749392062E-01  0.31023353176E-01  0.00000000000E+00 0.  1.
       22    1    1    2    0    0 -0.48320597200E-03  0.89569516088E-03 -0.29496950147E-01  0.29514501958E-01  0.00000000000E+00 0. -1.
       22    1    1    2    0    0  0.91592237061E-02 -0.23615841388E-02 -0.25244191527E-03  0.94621448660E-02  0.00000000000E+00 0. -1.
</event>
<event>
 5   0  0.1023519E+07  0.9118800E+02  0.7546771E-02  0.1180000E+00
      -11   -1    0    0    0    0  0.00000000000E+00  0.00000000000E+00  0.34996269501E-01  0.35000000000E-01  0.51099999109E-03 0. -1.
       11   -1    0    0    0    0 -0.00000000000E+00 -0.00000000000E+00 -0.34996269501E-01  0.35000000000E-01  0.51099999109E-03 0.  1.
       22    1    1    2    0    0 -0.63172157696E-04  0.56561558184E-03 -0.57043467143E-02  0.57326680651E-02  0.00000000000E+00 0.  1.
       22    1    1    2    0    0  0.21689886175E-02 -0.45760078007E-02 -0.28913894580E-01  0.29354005839E-01  0.00000000000E+00 0.  1.
       22    1    1    2    0    0 -0.21058164598E-02  0.40103922189E-02  0.34618241295E-01  0.34913326095E-01  0.00000000000E+00 0. -1.
</event>
<event>
 5   0  0.1023519E+07  0.9118800E+02  0.7546771E-02  0.1180000E+00
      -11   -1    0    0    0    0  0.00000000000E+00  0.00000000000E+00  0.34996269501E-01  0.35000000000E-01  0.51099999109E-03 0. -1.
       11   -1    0    0    0    0 -0.00000000000E+00 -0.00000000000E+00 -0.34996269501E-01  0.35000000000E-01  0.51099999109E-03 0.  1.
       22    1    1    2    0    0  0.36789683324E-02  0.39806649610E-02 -0.34571253345E-01  0.34993600263E-01  0.00000000000E+00 0.  1.
       22    1    1    2    0    0 -0.37014273170E-02 -0.39669064191E-02  0.34547475404E-01  0.34970916023E-01  0.00000000000E+00 0. -1.
       22    1    1    2    0    0  0.22458984655E-04 -0.13758541902E-04  0.23777941447E-04  0.35483714101E-04  0.00000000000E+00 0. -1.
</event>
<event>
 5   0  0.1023519E+07  0.9118800E+02  0.7546771E-02  0.1180000E+00
      -11   -1    0    0    0    0  0.00000000000E+00  0.00000000000E+00  0.34996269501E-01  0.35000000000E-01  0.51099999109E-03 0.  1.
       11   -1    0    0    0    0 -0.00000000000E+00 -0.00000000000E+00 -0.34996269501E-01  0.35000000000E-01  0.51099999109E-03 0. -1.
       22    1    1    2    0    0 -0.34135936863E-05 -0.12193789120E-04  0.12650502273E-04  0.17899059269E-04  0.00000000000E+00 0.  1.
       22    1    1    2    0    0 -0.19338323571E-01  0.24390744198E-02 -0.29065186224E-01  0.34995783929E-01  0.00000000000E+00 0. -1.
       22    1    1    2    0    0  0.19341737165E-01 -0.24268806307E-02  0.29052535722E-01  0.34986317011E-01  0.00000000000E+00 0.  1.
</event>
<event>
 5   0  0.1023519E+07  0.9118800E+02  0.7546771E-02  0.1180000E+00
      -11   -1    0    0    0    0  0.00000000000E+00  0.00000000000E+00  0.34996269501E-01  0.35000000000E-01  0.51099999109E-03 0. -1.
       11   -1    0    0    0    0 -0.00000000000E+00 -0.00000000000E+00 -0.34996269501E-01  0.35000000000E-01  0.51099999109E-03 0.  1.
       22    1    1    2    0    0 -0.21688321518E-05  0.59915363467E-05  0.93739252897E-06  0.64405780369E-05  0.00000000000E+00 0.  1.
       22    1    1    2    0    0  0.27243626573E-01 -0.51698939664E-02 -0.21352790399E-01  0.34998352108E-01  0.00000000000E+00 0.  1.
       22    1    1    2    0    0 -0.27241457741E-01  0.51639024301E-02  0.21351853006E-01  0.34995207314E-01  0.00000000000E+00 0. -1.
</event>
<event>
 5   0  0.1023519E+07  0.9118800E+02  0.7546771E-02  0.1180000E+00
      -11   -1    0    0    0    0  0.00000000000E+00  0.00000000000E+00  0.34996269501E-01  0.35000000000E-01  0.51099999109E-03 0.  1.
       11   -1    0    0    0    0 -0.00000000000E+00 -0.00000000000E+00 -0.34996269501E-01  0.35000000000E-01  0.51099999109E-03 0. -1.
       22    1    1    2    0    0 -0.10924637233E-01 -0.14105302261E-01  0.25621584995E-01  0.31221352761E-01  0.00000000000E+00 0.  1.
       22    1    1    2    0    0  0.11398002610E-01  0.19180985255E-01 -0.25208215335E-01  0.33664206203E-01  0.00000000000E+00 0. -1.
       22    1    1    2    0    0 -0.47336537693E-03 -0.50756829939E-02 -0.41336965988E-03  0.51144410360E-02  0.00000000000E+00 0.  1.
</event>
<event>
 5   0  0.1023519E+07  0.9118800E+02  0.7546771E-02  0.1180000E+00
      -11   -1    0    0    0    0  0.00000000000E+00  0.00000000000E+00  0.34996269501E-01  0.35000000000E-01  0.51099999109E-03 0.  1.
       11   -1    0    0    0    0 -0.00000000000E+00 -0.00000000000E+00 -0.34996269501E-01  0.35000000000E-01  0.51099999109E-03 0.  1.
       22    1    1    2    0    0 -0.25255025057E-03 -0.61331467404E-04  0.20201495985E-04  0.26067466005E-03  0.00000000000E+00 0.  1.
       22    1    1    2    0    0  0.29158070047E-03 -0.81329353236E-03  0.34848713039E-01  0.34859421483E-01  0.00000000000E+00 0.  1.
       22    1    1    2    0    0 -0.39030449907E-04  0.87462499977E-03 -0.34868914535E-01  0.34879903857E-01  0.00000000000E+00 0.  1.
</event>
<event>
 5   0  0.1023519E+07  0.9118800E+02  0.7546771E-02  0.1180000E+00
      -11   -1    0    0    0    0  0.00000000000E+00  0.00000000000E+00  0.34996269501E-01  0.35000000000E-01  0.51099999109E-03 0. -1.
       11   -1    0    0    0    0 -0.00000000000E+00 -0.00000000000E+00 -0.34996269501E-01  0.35000000000E-01  0.51099999109E-03 0.  1.
       22    1    1    2    0    0  0.27110689259E-05 -0.60341218584E-03  0.40951634207E-03  0.72925801355E-03  0.00000000000E+00 0. -1.
       22    1    1    2    0    0 -0.35621605824E-03 -0.12617545730E-02 -0.34801608991E-01  0.34826296141E-01  0.00000000000E+00 0.  1.
       22    1    1    2    0    0  0.35350498931E-03  0.18651667589E-02  0.34392092649E-01  0.34444445846E-01  0.00000000000E+00 0. -1.
</event>
<event>
 5   0  0.1023519E+07  0.9118800E+02  0.7546771E-02  0.1180000E+00
      -11   -1    0    0    0    0  0.00000000000E+00  0.00000000000E+00  0.34996269501E-01  0.35000000000E-01  0.51099999109E-03 0.  1.
       11   -1    0    0    0    0 -0.00000000000E+00 -0.00000000000E+00 -0.34996269501E-01  0.35000000000E-01  0.51099999109E-03 0. -1.
       22    1    1    2    0    0 -0.31309719191E-03  0.37382515260E-03 -0.10730831881E-02  0.11786783382E-02  0.00000000000E+00 0.  1.
       22    1    1    2    0    0 -0.15668926203E-01 -0.39753915484E-02  0.30853624600E-01  0.34831955691E-01  0.00000000000E+00 0.  1.
       22    1    1    2    0    0  0.15982023394E-01  0.36015663958E-02 -0.29780541412E-01  0.33989365971E-01  0.00000000000E+00 0. -1.
</event>
<event>
 5   0  0.1023519E+07  0.9118800E+02  0.7546771E-02  0.1180000E+00
      -11   -1    0    0    0    0  0.00000000000E+00  0.00000000000E+00  0.34996269501E-01  0.35000000000E-01  0.51099999109E-03 0.  1.
       11   -1    0    0    0    0 -0.00000000000E+00 -0.00000000000E+00 -0.34996269501E-01  0.35000000000E-01  0.51099999109E-03 0. -1.
       22    1    1    2    0    0 -0.15360945184E-01  0.24011033177E-02 -0.30551295441E-01  0.34279813115E-01  0.00000000000E+00 0. -1.
       22    1    1    2    0    0  0.15399754313E-01 -0.26324720221E-02  0.31274629446E-01  0.34959759565E-01  0.00000000000E+00 0.  1.
       22    1    1    2    0    0 -0.38809129290E-04  0.23136870439E-03 -0.72333400503E-03  0.76042731981E-03  0.00000000000E+00 0. -1.
</event>
<event>
 5   0  0.1023519E+07  0.9118800E+02  0.7546771E-02  0.1180000E+00
      -11   -1    0    0    0    0  0.00000000000E+00  0.00000000000E+00  0.34996269501E-01  0.35000000000E-01  0.51099999109E-03 0.  1.
       11   -1    0    0    0    0 -0.00000000000E+00 -0.00000000000E+00 -0.34996269501E-01  0.35000000000E-01  0.51099999109E-03 0. -1.
       22    1    1    2    0    0 -0.30858928168E-01  0.10660899770E-01  0.12176342995E-01  0.34845251618E-01  0.00000000000E+00 0.  1.
       22    1    1    2    0    0  0.30825295899E-01 -0.10831975208E-01 -0.12330157580E-01  0.34922247066E-01  0.00000000000E+00 0. -1.
       22    1    1    2    0    0  0.33632269429E-04  0.17107543867E-03  0.15381458555E-03  0.23250131611E-03  0.00000000000E+00 0.  1.
</event>
<event>
 5   0  0.1023519E+07  0.9118800E+02  0.7546771E-02  0.1180000E+00
      -11   -1    0    0    0    0  0.00000000000E+00  0.00000000000E+00  0.34996269501E-01  0.35000000000E-01  0.51099999109E-03 0.  1.
       11   -1    0    0    0    0 -0.00000000000E+00 -0.00000000000E+00 -0.34996269501E-01  0.35000000000E-01  0.51099999109E-03 0. -1.
       22    1    1    2    0    0 -0.24032609877E-01 -0.10482477817E-01 -0.23184973034E-01  0.34999880760E-01  0.00000000000E+00 0. -1.
       22    1    1    2    0    0  0.95488422448E-07  0.53320553733E-06  0.94737424782E-06  0.10913038758E-05  0.00000000000E+00 0. -1.
       22    1    1    2    0    0  0.24032514388E-01  0.10481944611E-01  0.23184025660E-01  0.34999027936E-01  0.00000000000E+00 0.  1.
</event>
