<LesHouchesEvents version="3.0">
<header>
<!--
#*********************************************************************
#                                                                    *
#                        MadGraph5_aMC@NLO                           *
#                                                                    *
#                           Going Beyond                             *
#                                                                    *
#                   http://madgraph.hep.uiuc.edu                     *
#                   http://madgraph.phys.ucl.ac.be                   *
#                   http://amcatnlo.cern.ch                          *
#                                                                    *
#                     The MadGraph5_aMC@NLO team                     *
#                                                                    *
#....................................................................*
#                                                                    *
# This file contains all the information necessary to reproduce      *
# the events generated:                                              *
#                                                                    *
# 1. software version                                                *
# 2. proc_card          : code generation info including model       *
# 3. param_card         : model primary parameters in the LH format  *
# 4. run_card           : running parameters (collider and cuts)     *
# 5. pythia_card        : present only if pythia has been run        *
# 6. pgs_card           : present only if pgs has been run           *
# 7. delphes_cards      : present only if delphes has been run       *
#                                                                    *
#                                                                    *
#*********************************************************************
-->
<MGVersion>
#5.2.1.2
</MGVersion>
<MG5ProcCard>
#************************************************************
#*                     MadGraph5_aMC@NLO                    *
#*                                                          *
#*                *                       *                 *
#*                  *        * *        *                   *
#*                    * * * * 5 * * * *                     *
#*                  *        * *        *                   *
#*                *                       *                 *
#*                                                          *
#*                                                          *
#*         VERSION 2.1.2                 2014-07-03         *
#*                                                          *
#*    The MadGraph5_aMC@NLO Development Team - Find us at   *
#*    https://server06.fynu.ucl.ac.be/projects/madgraph     *
#*                                                          *
#************************************************************
#*                                                          *
#*               Command File for MadGraph5_aMC@NLO         *
#*                                                          *
#*     run as ./bin/mg5_aMC  filename                       *
#*                                                          *
#************************************************************
set group_subprocesses Auto
set ignore_six_quark_processes False
set gauge unitary
set complex_mass_scheme False
import model sm-lepton_masses
define p = g u c d s u~ c~ d~ s~
define j = g u c d s u~ c~ d~ s~
define l+ = e+ mu+
define l- = e- mu-
define vl = ve vm vt
define vl~ = ve~ vm~ vt~
generate e+ e- > a a a
output ../../e+e-2yyy
</MG5ProcCard>
<MGProcCard>
#*********************************************************************
#                        MadGraph/MadEvent                           *
#                   http://madgraph.hep.uiuc.edu                     *
#                                                                    *
#                          proc_card.dat                             *
#*********************************************************************
#                                                                    *
#            This Files is generated by MADGRAPH 5                   *
#                                                                    *
# WARNING: This Files is generated for MADEVENT (compatibility issue)*
#          This files is NOT a valid MG4 proc_card.dat               *
#          Running this in MG4 will NEVER reproduce the result of MG5*
#                                                                    *
#*********************************************************************
#*********************************************************************
# Process(es) requested : mg2 input                                  *
#*********************************************************************
# Begin PROCESS # This is TAG. Do not modify this line
e+ e- > a a a           #Process
# Be carefull the coupling are here in MG5 convention
          
end_coup           # End the couplings input

done               # this tells MG there are no more procs
# End PROCESS  # This is TAG. Do not modify this line
#*********************************************************************
# Model information                                                  *
#*********************************************************************
# Begin MODEL  # This is TAG. Do not modify this line
sm-lepton_masses
# End   MODEL  # This is TAG. Do not modify this line
#*********************************************************************
# Start multiparticle definitions                                    *
#*********************************************************************
# Begin MULTIPARTICLES # This is TAG. Do not modify this line

# End  MULTIPARTICLES # This is TAG. Do not modify this line
</MGProcCard>
<MGRunCard>
#*********************************************************************
#                       MadGraph5_aMC@NLO                            *
#                                                                    *
#                     run_card.dat MadEvent                          *
#                                                                    *
#  This file is used to set the parameters of the run.               *
#                                                                    *
#  Some notation/conventions:                                        *
#                                                                    *
#   Lines starting with a '# ' are info or comments                  *
#                                                                    *
#   mind the format:   value    = variable     ! comment             *
#*********************************************************************
#
#*******************                                                 
# Running parameters
#*******************                                                 
#                                                                    
#*********************************************************************
# Tag name for the run (one word)                                    *
#*********************************************************************
  tag_1     = run_tag ! name of the run 
#*********************************************************************
# Run to generate the grid pack                                      *
#*********************************************************************
  .false.     = gridpack  !True = setting up the grid pack
#*********************************************************************
# Number of events and rnd seed                                      *
# Warning: Do not generate more than 1M events in a single run       *
# If you want to run Pythia, avoid more than 50k events in a run.    *
#*********************************************************************
  1000000 = nevents ! Number of unweighted events requested 
 39 = iseed   ! rnd seed (0=assigned automatically=default))
#*********************************************************************
# Collider type and energy                                           *
# lpp: 0=No PDF, 1=proton, -1=antiproton, 2=photon from proton,      *
#                                         3=photon from electron     *
#*********************************************************************
        0     = lpp1    ! beam 1 type 
        -0     = lpp2    ! beam 2 type
     0.035     = ebeam1  ! beam 1 total energy in GeV
     0.035     = ebeam2  ! beam 2 total energy in GeV
#*********************************************************************
# Beam polarization from -100 (left-handed) to 100 (right-handed)    *
#*********************************************************************
        0     = polbeam1 ! beam polarization for beam 1
        0     = polbeam2 ! beam polarization for beam 2
#*********************************************************************
# PDF CHOICE: this automatically fixes also alpha_s and its evol.    *
#*********************************************************************
 'nn23lo1'    = pdlabel     ! PDF set                                     
#*********************************************************************
# Renormalization and factorization scales                           *
#*********************************************************************
 T        = fixed_ren_scale  ! if .true. use fixed ren scale
 T        = fixed_fac_scale  ! if .true. use fixed fac scale
 91.1880  = scale            ! fixed ren scale
 91.1880  = dsqrt_q2fact1    ! fixed fact scale for pdf1
 91.1880  = dsqrt_q2fact2    ! fixed fact scale for pdf2
 1        = scalefact        ! scale factor for event-by-event scales
#*********************************************************************
# Matching - Warning! ickkw > 1 is still beta
#*********************************************************************
 0        = ickkw            ! 0 no matching, 1 MLM, 2 CKKW matching
 1        = highestmult      ! for ickkw=2, highest mult group
 1        = ktscheme         ! for ickkw=1, 1 Durham kT, 2 Pythia pTE
 1        = alpsfact         ! scale factor for QCD emission vx
 F        = chcluster        ! cluster only according to channel diag
 T        = pdfwgt           ! for ickkw=1, perform pdf reweighting
 5        = asrwgtflavor     ! highest quark flavor for a_s reweight
 T        = clusinfo         ! include clustering tag in output
 3.0      = lhe_version       ! Change the way clustering information pass to shower.        
#*********************************************************************
#**********************************************************
#
#**********************************************************
# Automatic ptj and mjj cuts if xqcut > 0
# (turn off for VBF and single top processes)
#**********************************************************
   T  = auto_ptj_mjj  ! Automatic setting of ptj and mjj
#**********************************************************
#                                                                    
#**********************************
# BW cutoff (M+/-bwcutoff*Gamma)
#**********************************
  15  = bwcutoff      ! (M+/-bwcutoff*Gamma)
#**********************************************************
# Apply pt/E/eta/dr/mij cuts on decay products or not
# (note that etmiss/ptll/ptheavy/ht/sorted cuts always apply)
#**********************************************************
   T  = cut_decays    ! Cut decay products 
#*************************************************************
# Number of helicities to sum per event (0 = all helicities)
# 0 gives more stable result, but longer run time (needed for
# long decay chains e.g.).
# Use >=2 if most helicities contribute, e.g. pure QCD.
#*************************************************************
   0  = nhel          ! Number of helicities used per event
#*******************                                                 
# Standard Cuts
#*******************                                                 
#                                                                    
#*********************************************************************
# Minimum and maximum pt's (for max, -1 means no cut)                *
#*********************************************************************
 20  = ptj       ! minimum pt for the jets 
  0  = ptb       ! minimum pt for the b 
 0  = pta       ! minimum pt for the photons 
 0  = ptl       ! minimum pt for the charged leptons 
  0  = misset    ! minimum missing Et (sum of neutrino's momenta)
  0  = ptheavy   ! minimum pt for one heavy final state
 1.0 = ptonium   ! minimum pt for the quarkonium states
 -1  = ptjmax    ! maximum pt for the jets
 -1  = ptbmax    ! maximum pt for the b
 -1  = ptamax    ! maximum pt for the photons
 -1  = ptlmax    ! maximum pt for the charged leptons
 -1  = missetmax ! maximum missing Et (sum of neutrino's momenta)
#*********************************************************************
# Minimum and maximum E's (in the center of mass frame)              *
#*********************************************************************
  0  = ej     ! minimum E for the jets 
  0  = eb     ! minimum E for the b 
  0  = ea     ! minimum E for the photons 
  0  = el     ! minimum E for the charged leptons 
 -1   = ejmax ! maximum E for the jets
 -1   = ebmax ! maximum E for the b
 -1   = eamax ! maximum E for the photons
 -1   = elmax ! maximum E for the charged leptons
#*********************************************************************
# Maximum and minimum absolute rapidity (for max, -1 means no cut)   *
#*********************************************************************
   5  = etaj    ! max rap for the jets 
  -1  = etab    ! max rap for the b
  -1 = etaa
#  1.58619 = etaa    ! max rap for the photons 
 -1  = etal    ! max rap for the charged leptons 
 0.6  = etaonium ! max rap for the quarkonium states
   0  = etajmin ! min rap for the jets
   0  = etabmin ! min rap for the b
   0 = etaamin 
#   1.29833  = etaamin ! min rap for the photons
   0  = etalmin ! main rap for the charged leptons
#*********************************************************************
# Minimum and maximum DeltaR distance                                *
#*********************************************************************
 0.4 = drjj    ! min distance between jets 
 0   = drbb    ! min distance between b's 
 0.4 = drll    ! min distance between leptons 
 0 = draa    ! min distance between gammas 
 0   = drbj    ! min distance between b and jet 
 0.4 = draj    ! min distance between gamma and jet 
 0.4 = drjl    ! min distance between jet and lepton 
 0   = drab    ! min distance between gamma and b 
 0   = drbl    ! min distance between b and lepton 
 0 = dral    ! min distance between gamma and lepton 
 -1  = drjjmax ! max distance between jets
 -1  = drbbmax ! max distance between b's
 -1  = drllmax ! max distance between leptons
 -1  = draamax ! max distance between gammas
 -1  = drbjmax ! max distance between b and jet
 -1  = drajmax ! max distance between gamma and jet
 -1  = drjlmax ! max distance between jet and lepton
 -1  = drabmax ! max distance between gamma and b
 -1  = drblmax ! max distance between b and lepton
 -1  = dralmax ! maxdistance between gamma and lepton
#*********************************************************************
# Minimum and maximum invariant mass for pairs                       *
# WARNING: for four lepton final state mmll cut require to have      *
#          different lepton masses for each flavor!                  *           
#*********************************************************************
 0   = mmjj    ! min invariant mass of a jet pair 
 0   = mmbb    ! min invariant mass of a b pair 
 0   = mmaa    ! min invariant mass of gamma gamma pair
 0   = mmll    ! min invariant mass of l+l- (same flavour) lepton pair
 -1  = mmjjmax ! max invariant mass of a jet pair
 -1  = mmbbmax ! max invariant mass of a b pair
 -1  = mmaamax ! max invariant mass of gamma gamma pair
 -1  = mmllmax ! max invariant mass of l+l- (same flavour) lepton pair
#*********************************************************************
# Minimum and maximum invariant mass for all letpons                 *
#*********************************************************************
 0   = mmnl    ! min invariant mass for all letpons (l+- and vl) 
 -1  = mmnlmax ! max invariant mass for all letpons (l+- and vl) 
#*********************************************************************
# Minimum and maximum pt for 4-momenta sum of leptons                *
#*********************************************************************
 0   = ptllmin  ! Minimum pt for 4-momenta sum of leptons(l and vl)
 -1  = ptllmax  ! Maximum pt for 4-momenta sum of leptons(l and vl)
#*********************************************************************
# Inclusive cuts                                                     *
#*********************************************************************
 0  = xptj ! minimum pt for at least one jet  
 0  = xptb ! minimum pt for at least one b 
 0  = xpta ! minimum pt for at least one photon 
 0  = xptl ! minimum pt for at least one charged lepton 
#*********************************************************************
# Control the pt's of the jets sorted by pt                          *
#*********************************************************************
 0   = ptj1min ! minimum pt for the leading jet in pt
 0   = ptj2min ! minimum pt for the second jet in pt
 0   = ptj3min ! minimum pt for the third jet in pt
 0   = ptj4min ! minimum pt for the fourth jet in pt
 -1  = ptj1max ! maximum pt for the leading jet in pt 
 -1  = ptj2max ! maximum pt for the second jet in pt
 -1  = ptj3max ! maximum pt for the third jet in pt
 -1  = ptj4max ! maximum pt for the fourth jet in pt
 0   = cutuse  ! reject event if fails any (0) / all (1) jet pt cuts
#*********************************************************************
# Control the pt's of leptons sorted by pt                           *
#*********************************************************************
 0   = ptl1min ! minimum pt for the leading lepton in pt
 0   = ptl2min ! minimum pt for the second lepton in pt
 0   = ptl3min ! minimum pt for the third lepton in pt
 0   = ptl4min ! minimum pt for the fourth lepton in pt
 -1  = ptl1max ! maximum pt for the leading lepton in pt 
 -1  = ptl2max ! maximum pt for the second lepton in pt
 -1  = ptl3max ! maximum pt for the third lepton in pt
 -1  = ptl4max ! maximum pt for the fourth lepton in pt
#*********************************************************************
# Control the Ht(k)=Sum of k leading jets                            *
#*********************************************************************
 0   = htjmin ! minimum jet HT=Sum(jet pt)
 -1  = htjmax ! maximum jet HT=Sum(jet pt)
 0   = ihtmin  !inclusive Ht for all partons (including b)
 -1  = ihtmax  !inclusive Ht for all partons (including b)
 0   = ht2min ! minimum Ht for the two leading jets
 0   = ht3min ! minimum Ht for the three leading jets
 0   = ht4min ! minimum Ht for the four leading jets
 -1  = ht2max ! maximum Ht for the two leading jets
 -1  = ht3max ! maximum Ht for the three leading jets
 -1  = ht4max ! maximum Ht for the four leading jets
#***********************************************************************
# Photon-isolation cuts, according to hep-ph/9801442                   *
# When ptgmin=0, all the other parameters are ignored                  *
# When ptgmin>0, pta and draj are not going to be used                 *
#***********************************************************************
   0 = ptgmin ! Min photon transverse momentum
 0.0 = R0gamma ! Radius of isolation code
 1.0 = xn ! n parameter of eq.(3.4) in hep-ph/9801442
 1.0 = epsgamma ! epsilon_gamma parameter of eq.(3.4) in hep-ph/9801442
 .true. = isoEM ! isolate photons from EM energy (photons and leptons)
#*********************************************************************
# WBF cuts                                                           *
#*********************************************************************
 0   = xetamin ! minimum rapidity for two jets in the WBF case  
 0   = deltaeta ! minimum rapidity for two jets in the WBF case 
#*********************************************************************
# KT DURHAM CUT                                                      *
#*********************************************************************
 -1    =  ktdurham        
 0.4  =  dparameter 
#*********************************************************************
# maximal pdg code for quark to be considered as a light jet         *
# (otherwise b cuts are applied)                                     *
#*********************************************************************
 4 = maxjetflavor    ! Maximum jet pdg code
#*********************************************************************
# Jet measure cuts                                                   *
#*********************************************************************
 0   = xqcut   ! minimum kt jet measure between partons
#*********************************************************************
#
#*********************************************************************
# Store info for systematics studies                                 *
# WARNING: If use_syst is T, matched Pythia output is                *
#          meaningful ONLY if plotted taking matchscale              *
#          reweighting into account!                                 *
#*********************************************************************
   F  = use_syst      ! Enable systematics studies
#
#**************************************
# Parameter of the systematics study
#  will be used by SysCalc (if installed)
#**************************************                                  
#
0.5 1 2 = sys_scalefact  # factorization/renormalization scale factor
0.5 1 2 = sys_alpsfact  # \alpha_s emission scale factors
30 50 = sys_matchscale # variation of merging scale
# PDF sets and number of members (0 or none for all members).
CT10nlo.LHgrid = sys_pdf # matching scales
# MSTW2008nlo68cl.LHgrid 1  = sys_pdf
</MGRunCard>
<slha>
######################################################################
## PARAM_CARD AUTOMATICALY GENERATED BY MG5 FOLLOWING UFO MODEL   ####
######################################################################
##                                                                  ##
##  Width set on Auto will be computed following the information    ##
##        present in the decay.py files of the model.               ##
##        See  arXiv:1402.1178 for more details.                    ##
##                                                                  ##
######################################################################

###################################
## INFORMATION FOR MASS
###################################
Block mass 
    5 4.700000e+00 # MB 
    6 1.730000e+02 # MT 
   11 5.110000e-04 # Me 
   13 1.056600e-01 # MM 
   15 1.777000e+00 # MTA 
   23 9.118800e+01 # MZ 
   25 1.250000e+02 # MH 
## Dependent parameters, given by model restrictions.
## Those values should be edited following the 
## analytical expression. MG5 ignores those values 
## but they are important for interfacing the output of MG5
## to external program such as Pythia.
  1 0.000000 # d : 0.0 
  2 0.000000 # u : 0.0 
  3 0.000000 # s : 0.0 
  4 0.000000 # c : 0.0 
  12 0.000000 # ve : 0.0 
  14 0.000000 # vm : 0.0 
  16 0.000000 # vt : 0.0 
  21 0.000000 # g : 0.0 
  22 0.000000 # a : 0.0 
  24 80.419002 # w+ : cmath.sqrt(MZ__exp__2/2. + cmath.sqrt(MZ__exp__4/4. - (aEW*cmath.pi*MZ__exp__2)/(Gf*sqrt__2))) 

###################################
## INFORMATION FOR SMINPUTS
###################################
Block sminputs 
    1 1.325070e+02 # aEWM1 
    2 1.166390e-05 # Gf 
    3 1.180000e-01 # aS 

###################################
## INFORMATION FOR YUKAWA
###################################
Block yukawa 
    5 4.700000e+00 # ymb 
    6 1.730000e+02 # ymt 
   11 5.110000e-04 # yme 
   13 1.056600e-01 # ymm 
   15 1.777000e+00 # ymtau 

###################################
## INFORMATION FOR DECAY
###################################
DECAY   6 1.491500e+00 # WT 
DECAY  15 2.270000e-12 # WTau 
DECAY  23 2.441404e+00 # WZ 
DECAY  24 2.047600e+00 # WW 
DECAY  25 6.382339e-03 # WH 
## Dependent parameters, given by model restrictions.
## Those values should be edited following the 
## analytical expression. MG5 ignores those values 
## but they are important for interfacing the output of MG5
## to external program such as Pythia.
DECAY  1 0.000000 # d : 0.0 
DECAY  2 0.000000 # u : 0.0 
DECAY  3 0.000000 # s : 0.0 
DECAY  4 0.000000 # c : 0.0 
DECAY  5 0.000000 # b : 0.0 
DECAY  11 0.000000 # e- : 0.0 
DECAY  12 0.000000 # ve : 0.0 
DECAY  13 0.000000 # mu- : 0.0 
DECAY  14 0.000000 # vm : 0.0 
DECAY  16 0.000000 # vt : 0.0 
DECAY  21 0.000000 # g : 0.0 
DECAY  22 0.000000 # a : 0.0
</slha>
## END BANNER##
<MGGenerationInfo>
#  Number of Events        :          582
#  Integrated weight (pb)  :  0.10431E+09
#  Truncated wgt (pb)      :  0.95692E+08
#  Unit wgt                :  0.17923E+06
</MGGenerationInfo>
</header>
<init>
      -11       11  0.35000000000E-01  0.35000000000E-01 0 0       0       0 3   1
  0.10430860080E+09  0.00000000000E+00  0.17922680412E+06   0
<generator name='MadGraph5_aMC@NLO' version='#5.2.1.2'>please cite 1405.0301 </generator>
</init>
<event>
 5   0  0.1792268E+06  0.9118800E+02  0.7546771E-02  0.1180000E+00
      -11   -1    0    0    0    0  0.00000000000E+00  0.00000000000E+00  0.34996269501E-01  0.35000000000E-01  0.51099999109E-03 0.  1.
       11   -1    0    0    0    0 -0.00000000000E+00 -0.00000000000E+00 -0.34996269501E-01  0.35000000000E-01  0.51099999109E-03 0. -1.
       22    1    1    2    0    0  0.22983261507E-08 -0.59101938465E-08  0.10408427749E-08  0.64262001276E-08  0.00000000000E+00 0.  1.
       22    1    1    2    0    0  0.11222793542E-02  0.36655918883E-03  0.34980078068E-01  0.34999996261E-01  0.00000000000E+00 0.  1.
       22    1    1    2    0    0 -0.11222816525E-02 -0.36655327863E-03 -0.34980079109E-01  0.34999997313E-01  0.00000000000E+00 0. -1.
</event>
<event>
 5   0  0.1792268E+06  0.9118800E+02  0.7546771E-02  0.1180000E+00
      -11   -1    0    0    0    0  0.00000000000E+00  0.00000000000E+00  0.34996269501E-01  0.35000000000E-01  0.51099999109E-03 0. -1.
       11   -1    0    0    0    0 -0.00000000000E+00 -0.00000000000E+00 -0.34996269501E-01  0.35000000000E-01  0.51099999109E-03 0.  1.
       22    1    1    2    0    0  0.10633657680E-02 -0.63893961682E-03 -0.34977312364E-01  0.34999305290E-01  0.00000000000E+00 0.  1.
       22    1    1    2    0    0 -0.34976250116E-05 -0.40166395224E-05  0.93076645926E-05  0.10723777037E-04  0.00000000000E+00 0. -1.
       22    1    1    2    0    0 -0.10598681430E-02  0.64295625634E-03  0.34968004699E-01  0.34989970933E-01  0.00000000000E+00 0. -1.
</event>
<event>
 5   0  0.1792268E+06  0.9118800E+02  0.7546771E-02  0.1180000E+00
      -11   -1    0    0    0    0  0.00000000000E+00  0.00000000000E+00  0.34996269501E-01  0.35000000000E-01  0.51099999109E-03 0. -1.
       11   -1    0    0    0    0 -0.00000000000E+00 -0.00000000000E+00 -0.34996269501E-01  0.35000000000E-01  0.51099999109E-03 0.  1.
       22    1    1    2    0    0 -0.39090853784E-02  0.93413671708E-02  0.33502901861E-01  0.34999807460E-01  0.00000000000E+00 0. -1.
       22    1    1    2    0    0  0.21915618276E-06 -0.21022811040E-06  0.13799749428E-06  0.33356948193E-06  0.00000000000E+00 0. -1.
       22    1    1    2    0    0  0.39088662222E-02 -0.93411569427E-02 -0.33503039859E-01  0.34999858970E-01  0.00000000000E+00 0.  1.
</event>
<event>
 5   0  0.1792268E+06  0.9118800E+02  0.7546771E-02  0.1180000E+00
      -11   -1    0    0    0    0  0.00000000000E+00  0.00000000000E+00  0.34996269501E-01  0.35000000000E-01  0.51099999109E-03 0. -1.
       11   -1    0    0    0    0 -0.00000000000E+00 -0.00000000000E+00 -0.34996269501E-01  0.35000000000E-01  0.51099999109E-03 0.  1.
       22    1    1    2    0    0 -0.58303157464E-02  0.29673400717E-02  0.34382837254E-01  0.34999674091E-01  0.00000000000E+00 0. -1.
       22    1    1    2    0    0 -0.78984483771E-07 -0.20781792015E-06  0.29336259149E-06  0.36808755303E-06  0.00000000000E+00 0. -1.
       22    1    1    2    0    0  0.58303947309E-02 -0.29671322538E-02 -0.34383130617E-01  0.34999957822E-01  0.00000000000E+00 0.  1.
</event>
<event>
 5   0  0.1792268E+06  0.9118800E+02  0.7546771E-02  0.1180000E+00
      -11   -1    0    0    0    0  0.00000000000E+00  0.00000000000E+00  0.34996269501E-01  0.35000000000E-01  0.51099999109E-03 0.  1.
       11   -1    0    0    0    0 -0.00000000000E+00 -0.00000000000E+00 -0.34996269501E-01  0.35000000000E-01  0.51099999109E-03 0. -1.
       22    1    1    2    0    0 -0.56029020344E-02  0.30265473645E-01  0.14319071273E-01  0.33947418286E-01  0.00000000000E+00 0.  1.
       22    1    1    2    0    0 -0.94417162239E-03 -0.33647045105E-03  0.13181004054E-02  0.16559169954E-02  0.00000000000E+00 0.  1.
       22    1    1    2    0    0  0.65470736568E-02 -0.29929003194E-01 -0.15637171679E-01  0.34396664719E-01  0.00000000000E+00 0. -1.
</event>
<event>
 5   0  0.1792268E+06  0.9118800E+02  0.7546771E-02  0.1180000E+00
      -11   -1    0    0    0    0  0.00000000000E+00  0.00000000000E+00  0.34996269501E-01  0.35000000000E-01  0.51099999109E-03 0. -1.
       11   -1    0    0    0    0 -0.00000000000E+00 -0.00000000000E+00 -0.34996269501E-01  0.35000000000E-01  0.51099999109E-03 0. -1.
       22    1    1    2    0    0 -0.12151275403E-06 -0.17645575864E-06  0.35001077555E-01  0.34999350139E-01  0.00000000000E+00 0. -1.
       22    1    1    2    0    0  0.12150327926E-06  0.17644199978E-06  0.63219015451E-06  0.66750222293E-06  0.00000000000E+00 0. -1.
       22    1    1    2    0    0  0.94747665147E-11  0.13758861172E-10 -0.35001709745E-01  0.34999982359E-01  0.00000000000E+00 0. -1.
</event>
<event>
 5   0  0.1792268E+06  0.9118800E+02  0.7546771E-02  0.1180000E+00
      -11   -1    0    0    0    0  0.00000000000E+00  0.00000000000E+00  0.34996269501E-01  0.35000000000E-01  0.51099999109E-03 0. -1.
       11   -1    0    0    0    0 -0.00000000000E+00 -0.00000000000E+00 -0.34996269501E-01  0.35000000000E-01  0.51099999109E-03 0.  1.
       22    1    1    2    0    0 -0.90822648759E-02 -0.52222988798E-02  0.30441572164E-01  0.32193931986E-01  0.00000000000E+00 0. -1.
       22    1    1    2    0    0  0.11707345970E-01  0.81879586013E-02 -0.11178647712E-01  0.18140197915E-01  0.00000000000E+00 0.  1.
       22    1    1    2    0    0 -0.26250810937E-02 -0.29656597215E-02 -0.19262924452E-01  0.19665870100E-01  0.00000000000E+00 0. -1.
</event>
<event>
 5   0  0.1792268E+06  0.9118800E+02  0.7546771E-02  0.1180000E+00
      -11   -1    0    0    0    0  0.00000000000E+00  0.00000000000E+00  0.34996269501E-01  0.35000000000E-01  0.51099999109E-03 0.  1.
       11   -1    0    0    0    0 -0.00000000000E+00 -0.00000000000E+00 -0.34996269501E-01  0.35000000000E-01  0.51099999109E-03 0. -1.
       22    1    1    2    0    0 -0.29020831514E-02  0.90220293226E-02 -0.33691313925E-01  0.34998910465E-01  0.00000000000E+00 0. -1.
       22    1    1    2    0    0 -0.82289224137E-06  0.26702307393E-05  0.22475027666E-05  0.35858823918E-05  0.00000000000E+00 0.  1.
       22    1    1    2    0    0  0.29029060436E-02 -0.90246995533E-02  0.33689066422E-01  0.34997503653E-01  0.00000000000E+00 0.  1.
</event>
<event>
 5   0  0.1792268E+06  0.9118800E+02  0.7546771E-02  0.1180000E+00
      -11   -1    0    0    0    0  0.00000000000E+00  0.00000000000E+00  0.34996269501E-01  0.35000000000E-01  0.51099999109E-03 0. -1.
       11   -1    0    0    0    0 -0.00000000000E+00 -0.00000000000E+00 -0.34996269501E-01  0.35000000000E-01  0.51099999109E-03 0.  1.
       22    1    1    2    0    0 -0.94282623981E-02  0.17225560150E-02  0.33633019255E-01  0.34971979001E-01  0.00000000000E+00 0. -1.
       22    1    1    2    0    0  0.94228801205E-02 -0.17255005804E-02 -0.33661923383E-01  0.34998472936E-01  0.00000000000E+00 0.  1.
       22    1    1    2    0    0  0.53822776093E-05  0.29445653745E-05  0.28904128243E-04  0.29548062661E-04  0.00000000000E+00 0.  1.
</event>
<event>
 5   0  0.1792268E+06  0.9118800E+02  0.7546771E-02  0.1180000E+00
      -11   -1    0    0    0    0  0.00000000000E+00  0.00000000000E+00  0.34996269501E-01  0.35000000000E-01  0.51099999109E-03 0. -1.
       11   -1    0    0    0    0 -0.00000000000E+00 -0.00000000000E+00 -0.34996269501E-01  0.35000000000E-01  0.51099999109E-03 0.  1.
       22    1    1    2    0    0  0.52872449098E-02 -0.52234080094E-02 -0.34201628086E-01  0.34999861624E-01  0.00000000000E+00 0.  1.
       22    1    1    2    0    0  0.33221498713E-07 -0.70352773466E-06  0.19791448480E-05  0.21007306516E-05  0.00000000000E+00 0.  1.
       22    1    1    2    0    0 -0.52872781313E-02  0.52241115372E-02  0.34199648941E-01  0.34998037646E-01  0.00000000000E+00 0. -1.
</event>
<event>
 5   0  0.1792268E+06  0.9118800E+02  0.7546771E-02  0.1180000E+00
      -11   -1    0    0    0    0  0.00000000000E+00  0.00000000000E+00  0.34996269501E-01  0.35000000000E-01  0.51099999109E-03 0.  1.
       11   -1    0    0    0    0 -0.00000000000E+00 -0.00000000000E+00 -0.34996269501E-01  0.35000000000E-01  0.51099999109E-03 0. -1.
       22    1    1    2    0    0 -0.11578025631E-01  0.13179170862E-01 -0.21737596023E-01  0.27933211469E-01  0.00000000000E+00 0. -1.
       22    1    1    2    0    0  0.10024960809E-01 -0.11879667164E-01  0.29877249077E-01  0.33679019338E-01  0.00000000000E+00 0.  1.
       22    1    1    2    0    0  0.15530648218E-02 -0.12995036978E-02 -0.81396530535E-02  0.83877691929E-02  0.00000000000E+00 0. -1.
</event>
<event>
 5   0  0.1792268E+06  0.9118800E+02  0.7546771E-02  0.1180000E+00
      -11   -1    0    0    0    0  0.00000000000E+00  0.00000000000E+00  0.34996269501E-01  0.35000000000E-01  0.51099999109E-03 0. -1.
       11   -1    0    0    0    0 -0.00000000000E+00 -0.00000000000E+00 -0.34996269501E-01  0.35000000000E-01  0.51099999109E-03 0.  1.
       22    1    1    2    0    0  0.15217051491E-02 -0.11746546456E-01 -0.32882816937E-01  0.34951059926E-01  0.00000000000E+00 0.  1.
       22    1    1    2    0    0 -0.15948062197E-02  0.11875454920E-01  0.32457087261E-01  0.34598155296E-01  0.00000000000E+00 0. -1.
       22    1    1    2    0    0  0.73101070537E-04 -0.12890846449E-03  0.42572967647E-03  0.45078477809E-03  0.00000000000E+00 0. -1.
</event>
<event>
 5   0  0.1792268E+06  0.9118800E+02  0.7546771E-02  0.1180000E+00
      -11   -1    0    0    0    0  0.00000000000E+00  0.00000000000E+00  0.34996269501E-01  0.35000000000E-01  0.51099999109E-03 0.  1.
       11   -1    0    0    0    0 -0.00000000000E+00 -0.00000000000E+00 -0.34996269501E-01  0.35000000000E-01  0.51099999109E-03 0. -1.
       22    1    1    2    0    0  0.47544364605E-06 -0.17625327273E-06  0.23493597694E-04  0.23499069013E-04  0.00000000000E+00 0. -1.
       22    1    1    2    0    0  0.60709032914E-03 -0.61914825504E-03 -0.34989244841E-01  0.34999987968E-01  0.00000000000E+00 0. -1.
       22    1    1    2    0    0 -0.60756577278E-03  0.61932450831E-03  0.34965751243E-01  0.34976512963E-01  0.00000000000E+00 0.  1.
</event>
<event>
 5   0  0.1792268E+06  0.9118800E+02  0.7546771E-02  0.1180000E+00
      -11   -1    0    0    0    0  0.00000000000E+00  0.00000000000E+00  0.34996269501E-01  0.35000000000E-01  0.51099999109E-03 0. -1.
       11   -1    0    0    0    0 -0.00000000000E+00 -0.00000000000E+00 -0.34996269501E-01  0.35000000000E-01  0.51099999109E-03 0.  1.
       22    1    1    2    0    0  0.53836980654E-03  0.13653402960E-02  0.34969144956E-01  0.34999929931E-01  0.00000000000E+00 0. -1.
       22    1    1    2    0    0 -0.53836980099E-03 -0.13652975267E-02 -0.34969209441E-01  0.34999992690E-01  0.00000000000E+00 0.  1.
       22    1    1    2    0    0 -0.55518237569E-11 -0.42769347560E-07  0.64484766727E-07  0.77378952315E-07  0.00000000000E+00 0. -1.
</event>
<event>
 5   0  0.1792268E+06  0.9118800E+02  0.7546771E-02  0.1180000E+00
      -11   -1    0    0    0    0  0.00000000000E+00  0.00000000000E+00  0.34996269501E-01  0.35000000000E-01  0.51099999109E-03 0. -1.
       11   -1    0    0    0    0 -0.00000000000E+00 -0.00000000000E+00 -0.34996269501E-01  0.35000000000E-01  0.51099999109E-03 0.  1.
       22    1    1    2    0    0  0.25000012483E-02 -0.28253387440E-02  0.34795576244E-01  0.34999495302E-01  0.00000000000E+00 0. -1.
       22    1    1    2    0    0 -0.15758740003E-09  0.13675770075E-07  0.50663937583E-06  0.50682394247E-06  0.00000000000E+00 0.  1.
       22    1    1    2    0    0 -0.25000010908E-02  0.28253250682E-02 -0.34796082883E-01  0.34999997874E-01  0.00000000000E+00 0.  1.
</event>
<event>
 5   0  0.1792268E+06  0.9118800E+02  0.7546771E-02  0.1180000E+00
      -11   -1    0    0    0    0  0.00000000000E+00  0.00000000000E+00  0.34996269501E-01  0.35000000000E-01  0.51099999109E-03 0.  1.
       11   -1    0    0    0    0 -0.00000000000E+00 -0.00000000000E+00 -0.34996269501E-01  0.35000000000E-01  0.51099999109E-03 0. -1.
       22    1    1    2    0    0  0.94841816989E-05 -0.19582516171E-04 -0.50880511432E-04  0.55337610047E-04  0.00000000000E+00 0. -1.
       22    1    1    2    0    0 -0.67400543393E-02  0.27370390830E-01 -0.20689201566E-01  0.34965836014E-01  0.00000000000E+00 0. -1.
       22    1    1    2    0    0  0.67305701576E-02 -0.27350808314E-01  0.20740082078E-01  0.34978826376E-01  0.00000000000E+00 0.  1.
</event>
<event>
 5   0  0.1792268E+06  0.9118800E+02  0.7546771E-02  0.1180000E+00
      -11   -1    0    0    0    0  0.00000000000E+00  0.00000000000E+00  0.34996269501E-01  0.35000000000E-01  0.51099999109E-03 0. -1.
       11   -1    0    0    0    0 -0.00000000000E+00 -0.00000000000E+00 -0.34996269501E-01  0.35000000000E-01  0.51099999109E-03 0.  1.
       22    1    1    2    0    0  0.68442377360E-02 -0.42820558836E-02 -0.33575218068E-01  0.34532229310E-01  0.00000000000E+00 0.  1.
       22    1    1    2    0    0 -0.17758452263E-03  0.24954452163E-03 -0.45972272396E-03  0.55240719934E-03  0.00000000000E+00 0.  1.
       22    1    1    2    0    0 -0.66666532133E-02  0.40325113620E-02  0.34034940792E-01  0.34915363491E-01  0.00000000000E+00 0. -1.
</event>
<event>
 5   0  0.1792268E+06  0.9118800E+02  0.7546771E-02  0.1180000E+00
      -11   -1    0    0    0    0  0.00000000000E+00  0.00000000000E+00  0.34996269501E-01  0.35000000000E-01  0.51099999109E-03 0. -1.
       11   -1    0    0    0    0 -0.00000000000E+00 -0.00000000000E+00 -0.34996269501E-01  0.35000000000E-01  0.51099999109E-03 0.  1.
       22    1    1    2    0    0  0.83235172320E-02  0.61220801471E-02 -0.32673113388E-01  0.34267960880E-01  0.00000000000E+00 0.  1.
       22    1    1    2    0    0  0.79189429884E-05 -0.15754976974E-04 -0.74944452383E-03  0.74965193474E-03  0.00000000000E+00 0.  1.
       22    1    1    2    0    0 -0.83314361750E-02 -0.61063251701E-02  0.33422557912E-01  0.34982387185E-01  0.00000000000E+00 0. -1.
</event>
<event>
 5   0  0.1792268E+06  0.9118800E+02  0.7546771E-02  0.1180000E+00
      -11   -1    0    0    0    0  0.00000000000E+00  0.00000000000E+00  0.34996269501E-01  0.35000000000E-01  0.51099999109E-03 0.  1.
       11   -1    0    0    0    0 -0.00000000000E+00 -0.00000000000E+00 -0.34996269501E-01  0.35000000000E-01  0.51099999109E-03 0. -1.
       22    1    1    2    0    0  0.96403311525E-03  0.10557654855E-02 -0.32080671778E-01  0.32112513174E-01  0.00000000000E+00 0. -1.
       22    1    1    2    0    0 -0.90742366309E-03 -0.18495938733E-02 -0.25327884541E-02  0.32648786430E-02  0.00000000000E+00 0.  1.
       22    1    1    2    0    0 -0.56609452166E-04  0.79382838771E-03  0.34613460232E-01  0.34622608183E-01  0.00000000000E+00 0.  1.
</event>
<event>
 5   0  0.1792268E+06  0.9118800E+02  0.7546771E-02  0.1180000E+00
      -11   -1    0    0    0    0  0.00000000000E+00  0.00000000000E+00  0.34996269501E-01  0.35000000000E-01  0.51099999109E-03 0.  1.
       11   -1    0    0    0    0 -0.00000000000E+00 -0.00000000000E+00 -0.34996269501E-01  0.35000000000E-01  0.51099999109E-03 0. -1.
       22    1    1    2    0    0 -0.16953291851E-05  0.72608783263E-06  0.62963368545E-05  0.65608842676E-05  0.00000000000E+00 0. -1.
       22    1    1    2    0    0  0.31275349501E-02 -0.25596030993E-02  0.34759540093E-01  0.34993694723E-01  0.00000000000E+00 0.  1.
       22    1    1    2    0    0 -0.31258396209E-02  0.25588770114E-02 -0.34765836430E-01  0.34999744393E-01  0.00000000000E+00 0. -1.
</event>
<event>
 5   0  0.1792268E+06  0.9118800E+02  0.7546771E-02  0.1180000E+00
      -11   -1    0    0    0    0  0.00000000000E+00  0.00000000000E+00  0.34996269501E-01  0.35000000000E-01  0.51099999109E-03 0. -1.
       11   -1    0    0    0    0 -0.00000000000E+00 -0.00000000000E+00 -0.34996269501E-01  0.35000000000E-01  0.51099999109E-03 0.  1.
       22    1    1    2    0    0  0.88452482179E-03 -0.70817899769E-03  0.34084988036E-01  0.34103816665E-01  0.00000000000E+00 0. -1.
       22    1    1    2    0    0  0.46738663068E-03  0.41529335983E-03  0.78230678994E-03  0.10014603092E-02  0.00000000000E+00 0. -1.
       22    1    1    2    0    0 -0.13519114525E-02  0.29288563786E-03 -0.34867294826E-01  0.34894723026E-01  0.00000000000E+00 0.  1.
</event>
<event>
 5   0  0.1792268E+06  0.9118800E+02  0.7546771E-02  0.1180000E+00
      -11   -1    0    0    0    0  0.00000000000E+00  0.00000000000E+00  0.34996269501E-01  0.35000000000E-01  0.51099999109E-03 0. -1.
       11   -1    0    0    0    0 -0.00000000000E+00 -0.00000000000E+00 -0.34996269501E-01  0.35000000000E-01  0.51099999109E-03 0.  1.
       22    1    1    2    0    0 -0.75669079499E-02 -0.93030745413E-02  0.32836211796E-01  0.34957432643E-01  0.00000000000E+00 0. -1.
       22    1    1    2    0    0  0.75642183208E-02  0.93283247603E-02 -0.32872849803E-01  0.34997989883E-01  0.00000000000E+00 0.  1.
       22    1    1    2    0    0  0.26896291054E-05 -0.25250219045E-04  0.36638007376E-04  0.44577474705E-04  0.00000000000E+00 0.  1.
</event>
<event>
 5   0  0.1792268E+06  0.9118800E+02  0.7546771E-02  0.1180000E+00
      -11   -1    0    0    0    0  0.00000000000E+00  0.00000000000E+00  0.34996269501E-01  0.35000000000E-01  0.51099999109E-03 0. -1.
       11   -1    0    0    0    0 -0.00000000000E+00 -0.00000000000E+00 -0.34996269501E-01  0.35000000000E-01  0.51099999109E-03 0.  1.
       22    1    1    2    0    0  0.10673484708E-02 -0.36337344414E-03 -0.34978797469E-01  0.34996964803E-01  0.00000000000E+00 0.  1.
       22    1    1    2    0    0 -0.10491227646E-02  0.38589678133E-03  0.34915852485E-01  0.34933741993E-01  0.00000000000E+00 0. -1.
       22    1    1    2    0    0 -0.18225706181E-04 -0.22523337189E-04  0.62944984019E-04  0.69293203830E-04  0.00000000000E+00 0. -1.
</event>
<event>
 5   0  0.1792268E+06  0.9118800E+02  0.7546771E-02  0.1180000E+00
      -11   -1    0    0    0    0  0.00000000000E+00  0.00000000000E+00  0.34996269501E-01  0.35000000000E-01  0.51099999109E-03 0. -1.
       11   -1    0    0    0    0 -0.00000000000E+00 -0.00000000000E+00 -0.34996269501E-01  0.35000000000E-01  0.51099999109E-03 0.  1.
       22    1    1    2    0    0  0.14990618988E-03 -0.22529940731E-02 -0.34926965878E-01  0.34999877137E-01  0.00000000000E+00 0.  1.
       22    1    1    2    0    0 -0.14920066167E-03  0.22534945802E-02  0.34925316576E-01  0.34998260479E-01  0.00000000000E+00 0. -1.
       22    1    1    2    0    0 -0.70552820942E-06 -0.50050711366E-06  0.16493019672E-05  0.18623840646E-05  0.00000000000E+00 0.  1.
</event>
<event>
 5   0  0.1792268E+06  0.9118800E+02  0.7546771E-02  0.1180000E+00
      -11   -1    0    0    0    0  0.00000000000E+00  0.00000000000E+00  0.34996269501E-01  0.35000000000E-01  0.51099999109E-03 0. -1.
       11   -1    0    0    0    0 -0.00000000000E+00 -0.00000000000E+00 -0.34996269501E-01  0.35000000000E-01  0.51099999109E-03 0.  1.
       22    1    1    2    0    0  0.89096515874E-07  0.46586649592E-07  0.15154506334E-05  0.15187821197E-05  0.00000000000E+00 0. -1.
       22    1    1    2    0    0 -0.26759396979E-02  0.10753972999E-02  0.34879464448E-01  0.34998488151E-01  0.00000000000E+00 0. -1.
       22    1    1    2    0    0  0.26758506014E-02 -0.10754438865E-02 -0.34880979899E-01  0.34999993067E-01  0.00000000000E+00 0.  1.
</event>
<event>
 5   0  0.1792268E+06  0.9118800E+02  0.7546771E-02  0.1180000E+00
      -11   -1    0    0    0    0  0.00000000000E+00  0.00000000000E+00  0.34996269501E-01  0.35000000000E-01  0.51099999109E-03 0.  1.
       11   -1    0    0    0    0 -0.00000000000E+00 -0.00000000000E+00 -0.34996269501E-01  0.35000000000E-01  0.51099999109E-03 0. -1.
       22    1    1    2    0    0  0.58247531025E-07  0.10661182389E-06  0.28659898412E-05  0.28685635126E-05  0.00000000000E+00 0.  1.
       22    1    1    2    0    0 -0.11745658849E-01  0.68985595571E-02  0.32237501928E-01  0.34997244982E-01  0.00000000000E+00 0.  1.
       22    1    1    2    0    0  0.11745600602E-01 -0.68986661689E-02 -0.32240367918E-01  0.34999886455E-01  0.00000000000E+00 0. -1.
</event>
<event>
 5   0  0.1792268E+06  0.9118800E+02  0.7546771E-02  0.1180000E+00
      -11   -1    0    0    0    0  0.00000000000E+00  0.00000000000E+00  0.34996269501E-01  0.35000000000E-01  0.51099999109E-03 0.  1.
       11   -1    0    0    0    0 -0.00000000000E+00 -0.00000000000E+00 -0.34996269501E-01  0.35000000000E-01  0.51099999109E-03 0.  1.
       22    1    1    2    0    0 -0.00000000000E+00 -0.00000000000E+00  0.91686643107E-02  0.91683048891E-02  0.00000000000E+00 0.  1.
       22    1    1    2    0    0 -0.16970060747E-02  0.21098500673E-03 -0.34950949706E-01  0.34992759674E-01  0.00000000000E+00 0.  1.
       22    1    1    2    0    0  0.16970060747E-02 -0.21098500673E-03  0.25782285395E-01  0.25838935436E-01  0.00000000000E+00 0. -1.
</event>
<event>
 5   0  0.1792268E+06  0.9118800E+02  0.7546771E-02  0.1180000E+00
      -11   -1    0    0    0    0  0.00000000000E+00  0.00000000000E+00  0.34996269501E-01  0.35000000000E-01  0.51099999109E-03 0.  1.
       11   -1    0    0    0    0 -0.00000000000E+00 -0.00000000000E+00 -0.34996269501E-01  0.35000000000E-01  0.51099999109E-03 0.  1.
       22    1    1    2    0    0 -0.31216585678E-03 -0.66701721880E-03  0.34973926922E-01  0.34981679831E-01  0.00000000000E+00 0.  1.
       22    1    1    2    0    0  0.27850789766E-04  0.67919913096E-04 -0.51674453238E-04  0.89772101474E-04  0.00000000000E+00 0. -1.
       22    1    1    2    0    0  0.28431506702E-03  0.59909730570E-03 -0.34922252468E-01  0.34928548067E-01  0.00000000000E+00 0.  1.
</event>
<event>
 5   0  0.1792268E+06  0.9118800E+02  0.7546771E-02  0.1180000E+00
      -11   -1    0    0    0    0  0.00000000000E+00  0.00000000000E+00  0.34996269501E-01  0.35000000000E-01  0.51099999109E-03 0.  1.
       11   -1    0    0    0    0 -0.00000000000E+00 -0.00000000000E+00 -0.34996269501E-01  0.35000000000E-01  0.51099999109E-03 0. -1.
       22    1    1    2    0    0 -0.46022321512E-04 -0.46638190792E-04 -0.63504808137E-03  0.63841932973E-03  0.00000000000E+00 0. -1.
       22    1    1    2    0    0  0.90459310477E-02 -0.24190270328E-01 -0.22812405475E-01  0.34458727350E-01  0.00000000000E+00 0. -1.
       22    1    1    2    0    0 -0.89999087262E-02  0.24236908519E-01  0.23447453556E-01  0.34902853320E-01  0.00000000000E+00 0.  1.
</event>
<event>
 5   0  0.1792268E+06  0.9118800E+02  0.7546771E-02  0.1180000E+00
      -11   -1    0    0    0    0  0.00000000000E+00  0.00000000000E+00  0.34996269501E-01  0.35000000000E-01  0.51099999109E-03 0. -1.
       11   -1    0    0    0    0 -0.00000000000E+00 -0.00000000000E+00 -0.34996269501E-01  0.35000000000E-01  0.51099999109E-03 0.  1.
       22    1    1    2    0    0 -0.80618778743E-03  0.34126258582E-02 -0.14429517207E-01  0.14849475439E-01  0.00000000000E+00 0. -1.
       22    1    1    2    0    0 -0.38095235579E-02  0.24968803229E-02  0.33942301828E-01  0.34246557995E-01  0.00000000000E+00 0. -1.
       22    1    1    2    0    0  0.46157113453E-02 -0.59095061810E-02 -0.19512784621E-01  0.20903966566E-01  0.00000000000E+00 0.  1.
</event>
<event>
 5   0  0.1792268E+06  0.9118800E+02  0.7546771E-02  0.1180000E+00
      -11   -1    0    0    0    0  0.00000000000E+00  0.00000000000E+00  0.34996269501E-01  0.35000000000E-01  0.51099999109E-03 0.  1.
       11   -1    0    0    0    0 -0.00000000000E+00 -0.00000000000E+00 -0.34996269501E-01  0.35000000000E-01  0.51099999109E-03 0. -1.
       22    1    1    2    0    0 -0.14902051930E-04  0.10743140031E-04  0.12475586202E-03  0.12610119475E-03  0.00000000000E+00 0.  1.
       22    1    1    2    0    0  0.23658850283E-02 -0.65508874626E-02 -0.34299556443E-01  0.34999587293E-01  0.00000000000E+00 0. -1.
       22    1    1    2    0    0 -0.23509829763E-02  0.65401443226E-02  0.34174800581E-01  0.34874311512E-01  0.00000000000E+00 0.  1.
</event>
<event>
 5   0  0.1792268E+06  0.9118800E+02  0.7546771E-02  0.1180000E+00
      -11   -1    0    0    0    0  0.00000000000E+00  0.00000000000E+00  0.34996269501E-01  0.35000000000E-01  0.51099999109E-03 0. -1.
       11   -1    0    0    0    0 -0.00000000000E+00 -0.00000000000E+00 -0.34996269501E-01  0.35000000000E-01  0.51099999109E-03 0.  1.
       22    1    1    2    0    0  0.80095418618E-03 -0.31844879524E-03  0.34987885134E-01  0.34998500588E-01  0.00000000000E+00 0. -1.
       22    1    1    2    0    0  0.26017544943E-05  0.34431083068E-05 -0.16506187039E-05  0.46204613803E-05  0.00000000000E+00 0.  1.
       22    1    1    2    0    0 -0.80355594067E-03  0.31500568694E-03 -0.34986234515E-01  0.34996878951E-01  0.00000000000E+00 0.  1.
</event>
<event>
 5   0  0.1792268E+06  0.9118800E+02  0.7546771E-02  0.1180000E+00
      -11   -1    0    0    0    0  0.00000000000E+00  0.00000000000E+00  0.34996269501E-01  0.35000000000E-01  0.51099999109E-03 0.  1.
       11   -1    0    0    0    0 -0.00000000000E+00 -0.00000000000E+00 -0.34996269501E-01  0.35000000000E-01  0.51099999109E-03 0. -1.
       22    1    1    2    0    0  0.40818246469E-03 -0.90365571668E-03 -0.34985848725E-01  0.34999897394E-01  0.00000000000E+00 0. -1.
       22    1    1    2    0    0 -0.11217881552E-05 -0.28643744771E-05  0.36476594102E-04  0.36606078281E-04  0.00000000000E+00 0.  1.
       22    1    1    2    0    0 -0.40706067653E-03  0.90652009115E-03  0.34949372131E-01  0.34963496528E-01  0.00000000000E+00 0.  1.
</event>
<event>
 5   0  0.1792268E+06  0.9118800E+02  0.7546771E-02  0.1180000E+00
      -11   -1    0    0    0    0  0.00000000000E+00  0.00000000000E+00  0.34996269501E-01  0.35000000000E-01  0.51099999109E-03 0. -1.
       11   -1    0    0    0    0 -0.00000000000E+00 -0.00000000000E+00 -0.34996269501E-01  0.35000000000E-01  0.51099999109E-03 0.  1.
       22    1    1    2    0    0  0.16108224622E-05  0.26085680008E-06  0.81135983972E-05  0.82760663498E-05  0.00000000000E+00 0. -1.
       22    1    1    2    0    0 -0.65594524938E-02 -0.14673776378E-02 -0.34348513250E-01  0.34999999666E-01  0.00000000000E+00 0.  1.
       22    1    1    2    0    0  0.65578416714E-02  0.14671167810E-02  0.34340399651E-01  0.34991724268E-01  0.00000000000E+00 0. -1.
</event>
<event>
 5   0  0.1792268E+06  0.9118800E+02  0.7546771E-02  0.1180000E+00
      -11   -1    0    0    0    0  0.00000000000E+00  0.00000000000E+00  0.34996269501E-01  0.35000000000E-01  0.51099999109E-03 0. -1.
       11   -1    0    0    0    0 -0.00000000000E+00 -0.00000000000E+00 -0.34996269501E-01  0.35000000000E-01  0.51099999109E-03 0.  1.
       22    1    1    2    0    0  0.95202587862E-02 -0.30436648876E-02  0.32887838983E-01  0.34373087966E-01  0.00000000000E+00 0. -1.
       22    1    1    2    0    0 -0.75917822644E-02  0.62523052388E-02 -0.21578768942E-01  0.23714336335E-01  0.00000000000E+00 0.  1.
       22    1    1    2    0    0 -0.19284765219E-02 -0.32086403512E-02 -0.11309070041E-01  0.11912575699E-01  0.00000000000E+00 0. -1.
</event>
<event>
 5   0  0.1792268E+06  0.9118800E+02  0.7546771E-02  0.1180000E+00
      -11   -1    0    0    0    0  0.00000000000E+00  0.00000000000E+00  0.34996269501E-01  0.35000000000E-01  0.51099999109E-03 0.  1.
       11   -1    0    0    0    0 -0.00000000000E+00 -0.00000000000E+00 -0.34996269501E-01  0.35000000000E-01  0.51099999109E-03 0. -1.
       22    1    1    2    0    0  0.29773735682E-01  0.15260980569E-02  0.18239516580E-01  0.34949739295E-01  0.00000000000E+00 0.  1.
       22    1    1    2    0    0 -0.29791219346E-01 -0.14345932559E-02 -0.18231905331E-01  0.34956790184E-01  0.00000000000E+00 0. -1.
       22    1    1    2    0    0  0.17483664587E-04 -0.91504801072E-04 -0.76112495554E-05  0.93470520842E-04  0.00000000000E+00 0.  1.
</event>
<event>
 5   0  0.1792268E+06  0.9118800E+02  0.7546771E-02  0.1180000E+00
      -11   -1    0    0    0    0  0.00000000000E+00  0.00000000000E+00  0.34996269501E-01  0.35000000000E-01  0.51099999109E-03 0.  1.
       11   -1    0    0    0    0 -0.00000000000E+00 -0.00000000000E+00 -0.34996269501E-01  0.35000000000E-01  0.51099999109E-03 0.  1.
       22    1    1    2    0    0  0.19235392213E-04 -0.19573104637E-03  0.34971967548E-01  0.34972520568E-01  0.00000000000E+00 0.  1.
       22    1    1    2    0    0  0.41290870200E-04 -0.54989519590E-05  0.11631810217E-04  0.43248970432E-04  0.00000000000E+00 0.  1.
       22    1    1    2    0    0 -0.60526262413E-04  0.20122999832E-03 -0.34983599359E-01  0.34984230462E-01  0.00000000000E+00 0.  1.
</event>
<event>
 5   0  0.1792268E+06  0.9118800E+02  0.7546771E-02  0.1180000E+00
      -11   -1    0    0    0    0  0.00000000000E+00  0.00000000000E+00  0.34996269501E-01  0.35000000000E-01  0.51099999109E-03 0.  1.
       11   -1    0    0    0    0 -0.00000000000E+00 -0.00000000000E+00 -0.34996269501E-01  0.35000000000E-01  0.51099999109E-03 0. -1.
       22    1    1    2    0    0 -0.13099079154E-02  0.10558316952E-02 -0.34959527025E-01  0.34999988130E-01  0.00000000000E+00 0. -1.
       22    1    1    2    0    0 -0.46908795613E-07 -0.11451181937E-08  0.39114715038E-07  0.61087701987E-07  0.00000000000E+00 0. -1.
       22    1    1    2    0    0  0.13099548242E-02 -0.10558305501E-02  0.34959487910E-01  0.34999950782E-01  0.00000000000E+00 0.  1.
</event>
<event>
 5   0  0.1792268E+06  0.9118800E+02  0.7546771E-02  0.1180000E+00
      -11   -1    0    0    0    0  0.00000000000E+00  0.00000000000E+00  0.34996269501E-01  0.35000000000E-01  0.51099999109E-03 0. -1.
       11   -1    0    0    0    0 -0.00000000000E+00 -0.00000000000E+00 -0.34996269501E-01  0.35000000000E-01  0.51099999109E-03 0.  1.
       22    1    1    2    0    0  0.64755471123E-04  0.14702533648E-03  0.89809078815E-03  0.91234685530E-03  0.00000000000E+00 0.  1.
       22    1    1    2    0    0  0.18057688205E-02 -0.31862942793E-02 -0.34803135434E-01  0.34995306947E-01  0.00000000000E+00 0.  1.
       22    1    1    2    0    0 -0.18705242916E-02  0.30392689428E-02  0.33905044646E-01  0.34092346198E-01  0.00000000000E+00 0. -1.
</event>
<event>
 5   0  0.1792268E+06  0.9118800E+02  0.7546771E-02  0.1180000E+00
      -11   -1    0    0    0    0  0.00000000000E+00  0.00000000000E+00  0.34996269501E-01  0.35000000000E-01  0.51099999109E-03 0. -1.
       11   -1    0    0    0    0 -0.00000000000E+00 -0.00000000000E+00 -0.34996269501E-01  0.35000000000E-01  0.51099999109E-03 0.  1.
       22    1    1    2    0    0 -0.70352616393E-02 -0.93876641367E-03  0.34271237444E-01  0.34998484319E-01  0.00000000000E+00 0. -1.
       22    1    1    2    0    0  0.70352932039E-02  0.93864898094E-03 -0.34272764981E-01  0.34999983311E-01  0.00000000000E+00 0.  1.
       22    1    1    2    0    0 -0.31564673551E-07  0.11743273050E-06  0.15275370972E-05  0.15323695240E-05  0.00000000000E+00 0.  1.
</event>
<event>
 5   0  0.1792268E+06  0.9118800E+02  0.7546771E-02  0.1180000E+00
      -11   -1    0    0    0    0  0.00000000000E+00  0.00000000000E+00  0.34996269501E-01  0.35000000000E-01  0.51099999109E-03 0. -1.
       11   -1    0    0    0    0 -0.00000000000E+00 -0.00000000000E+00 -0.34996269501E-01  0.35000000000E-01  0.51099999109E-03 0.  1.
       22    1    1    2    0    0 -0.25142214040E-01  0.19782882610E-01 -0.14162635443E-01  0.34986763409E-01  0.00000000000E+00 0.  1.
       22    1    1    2    0    0  0.25152141797E-01 -0.19786000158E-01  0.14136473950E-01  0.34985081606E-01  0.00000000000E+00 0. -1.
       22    1    1    2    0    0 -0.99277573024E-05  0.31175487814E-05  0.26161492570E-04  0.28154984798E-04  0.00000000000E+00 0. -1.
</event>
<event>
 5   0  0.1792268E+06  0.9118800E+02  0.7546771E-02  0.1180000E+00
      -11   -1    0    0    0    0  0.00000000000E+00  0.00000000000E+00  0.34996269501E-01  0.35000000000E-01  0.51099999109E-03 0.  1.
       11   -1    0    0    0    0 -0.00000000000E+00 -0.00000000000E+00 -0.34996269501E-01  0.35000000000E-01  0.51099999109E-03 0. -1.
       22    1    1    2    0    0  0.93674687359E-02 -0.12721047784E-02  0.71215297296E-02  0.11835704744E-01  0.00000000000E+00 0. -1.
       22    1    1    2    0    0 -0.41035875944E-02  0.13705372936E-03 -0.32227161363E-01  0.32487661418E-01  0.00000000000E+00 0. -1.
       22    1    1    2    0    0 -0.52638811416E-02  0.11350510491E-02  0.25105631634E-01  0.25676633839E-01  0.00000000000E+00 0.  1.
</event>
<event>
 5   0  0.1792268E+06  0.9118800E+02  0.7546771E-02  0.1180000E+00
      -11   -1    0    0    0    0  0.00000000000E+00  0.00000000000E+00  0.34996269501E-01  0.35000000000E-01  0.51099999109E-03 0.  1.
       11   -1    0    0    0    0 -0.00000000000E+00 -0.00000000000E+00 -0.34996269501E-01  0.35000000000E-01  0.51099999109E-03 0. -1.
       22    1    1    2    0    0 -0.29713233584E-01 -0.44418269015E-02 -0.76127787353E-02  0.30992910098E-01  0.00000000000E+00 0. -1.
       22    1    1    2    0    0  0.11091200555E-01  0.23811268514E-02  0.15052428924E-01  0.18848345056E-01  0.00000000000E+00 0.  1.
       22    1    1    2    0    0  0.18622033030E-01  0.20607000501E-02 -0.74396501884E-02  0.20158744847E-01  0.00000000000E+00 0. -1.
</event>
<event>
 5   0  0.1792268E+06  0.9118800E+02  0.7546771E-02  0.1180000E+00
      -11   -1    0    0    0    0  0.00000000000E+00  0.00000000000E+00  0.34996269501E-01  0.35000000000E-01  0.51099999109E-03 0. -1.
       11   -1    0    0    0    0 -0.00000000000E+00 -0.00000000000E+00 -0.34996269501E-01  0.35000000000E-01  0.51099999109E-03 0.  1.
       22    1    1    2    0    0  0.76765918061E-06  0.11489410994E-05  0.71973187676E-06  0.15580052124E-05  0.00000000000E+00 0.  1.
       22    1    1    2    0    0  0.10489448284E-03 -0.51474124449E-03 -0.34995645534E-01  0.34999588108E-01  0.00000000000E+00 0.  1.
       22    1    1    2    0    0 -0.10566214202E-03  0.51359230339E-03  0.34994925802E-01  0.34998853887E-01  0.00000000000E+00 0. -1.
</event>
<event>
 5   0  0.1792268E+06  0.9118800E+02  0.7546771E-02  0.1180000E+00
      -11   -1    0    0    0    0  0.00000000000E+00  0.00000000000E+00  0.34996269501E-01  0.35000000000E-01  0.51099999109E-03 0. -1.
       11   -1    0    0    0    0 -0.00000000000E+00 -0.00000000000E+00 -0.34996269501E-01  0.35000000000E-01  0.51099999109E-03 0.  1.
       22    1    1    2    0    0  0.22159952514E-01  0.13226948701E-01  0.23387557996E-01  0.34828056741E-01  0.00000000000E+00 0. -1.
       22    1    1    2    0    0 -0.22101527481E-01 -0.12225451920E-01 -0.22662287221E-01  0.33934030909E-01  0.00000000000E+00 0.  1.
       22    1    1    2    0    0 -0.58425032520E-04 -0.10014967817E-02 -0.72527077537E-03  0.12379123498E-02  0.00000000000E+00 0.  1.
</event>
<event>
 5   0  0.1792268E+06  0.9118800E+02  0.7546771E-02  0.1180000E+00
      -11   -1    0    0    0    0  0.00000000000E+00  0.00000000000E+00  0.34996269501E-01  0.35000000000E-01  0.51099999109E-03 0. -1.
       11   -1    0    0    0    0 -0.00000000000E+00 -0.00000000000E+00 -0.34996269501E-01  0.35000000000E-01  0.51099999109E-03 0. -1.
       22    1    1    2    0    0  0.23174234729E-03  0.60049020140E-03 -0.34931277516E-01  0.34937207127E-01  0.00000000000E+00 0. -1.
       22    1    1    2    0    0 -0.11853792609E-03  0.21380983072E-03  0.32408770091E-01  0.32409692141E-01  0.00000000000E+00 0. -1.
       22    1    1    2    0    0 -0.11320442120E-03 -0.81430003211E-03  0.25225074244E-02  0.26531007311E-02  0.00000000000E+00 0.  1.
</event>
<event>
 5   0  0.1792268E+06  0.9118800E+02  0.7546771E-02  0.1180000E+00
      -11   -1    0    0    0    0  0.00000000000E+00  0.00000000000E+00  0.34996269501E-01  0.35000000000E-01  0.51099999109E-03 0.  1.
       11   -1    0    0    0    0 -0.00000000000E+00 -0.00000000000E+00 -0.34996269501E-01  0.35000000000E-01  0.51099999109E-03 0. -1.
       22    1    1    2    0    0  0.16177843117E-02 -0.27807187948E-02 -0.34212076978E-01  0.34363000950E-01  0.00000000000E+00 0. -1.
       22    1    1    2    0    0 -0.18266230770E-02  0.28613914700E-02  0.34822105990E-01  0.34987185919E-01  0.00000000000E+00 0.  1.
       22    1    1    2    0    0  0.20883876532E-03 -0.80672675192E-04 -0.61002901138E-03  0.64981313094E-03  0.00000000000E+00 0.  1.
</event>
<event>
 5   0  0.1792268E+06  0.9118800E+02  0.7546771E-02  0.1180000E+00
      -11   -1    0    0    0    0  0.00000000000E+00  0.00000000000E+00  0.34996269501E-01  0.35000000000E-01  0.51099999109E-03 0. -1.
       11   -1    0    0    0    0 -0.00000000000E+00 -0.00000000000E+00 -0.34996269501E-01  0.35000000000E-01  0.51099999109E-03 0.  1.
       22    1    1    2    0    0  0.11296338013E-02 -0.41203816023E-03  0.34969937511E-01  0.34990604131E-01  0.00000000000E+00 0. -1.
       22    1    1    2    0    0  0.20064838039E-05 -0.19052866025E-06  0.92566289560E-05  0.94735135011E-05  0.00000000000E+00 0.  1.
       22    1    1    2    0    0 -0.11316402851E-02  0.41222868889E-03 -0.34979194140E-01  0.34999922355E-01  0.00000000000E+00 0.  1.
</event>
<event>
 5   0  0.1792268E+06  0.9118800E+02  0.7546771E-02  0.1180000E+00
      -11   -1    0    0    0    0  0.00000000000E+00  0.00000000000E+00  0.34996269501E-01  0.35000000000E-01  0.51099999109E-03 0.  1.
       11   -1    0    0    0    0 -0.00000000000E+00 -0.00000000000E+00 -0.34996269501E-01  0.35000000000E-01  0.51099999109E-03 0.  1.
       22    1    1    2    0    0  0.68373857568E-03 -0.38621398281E-04 -0.34993009219E-01  0.34999709774E-01  0.00000000000E+00 0.  1.
       22    1    1    2    0    0 -0.46486150411E-03 -0.23189624445E-04  0.27130590547E-01  0.27134582683E-01  0.00000000000E+00 0.  1.
       22    1    1    2    0    0 -0.21887707158E-03  0.61811022726E-04  0.78624186720E-02  0.78657075428E-02  0.00000000000E+00 0. -1.
</event>
<event>
 5   0  0.1792268E+06  0.9118800E+02  0.7546771E-02  0.1180000E+00
      -11   -1    0    0    0    0  0.00000000000E+00  0.00000000000E+00  0.34996269501E-01  0.35000000000E-01  0.51099999109E-03 0. -1.
       11   -1    0    0    0    0 -0.00000000000E+00 -0.00000000000E+00 -0.34996269501E-01  0.35000000000E-01  0.51099999109E-03 0.  1.
       22    1    1    2    0    0 -0.28025282603E-03  0.22691537273E-02  0.34925004746E-01  0.34999765096E-01  0.00000000000E+00 0. -1.
       22    1    1    2    0    0  0.47473617507E-07  0.12351757550E-07  0.23238093990E-06  0.23750202421E-06  0.00000000000E+00 0.  1.
       22    1    1    2    0    0  0.28020535241E-03 -0.22691660790E-02 -0.34925237127E-01  0.34999997402E-01  0.00000000000E+00 0.  1.
</event>
<event>
 5   0  0.1792268E+06  0.9118800E+02  0.7546771E-02  0.1180000E+00
      -11   -1    0    0    0    0  0.00000000000E+00  0.00000000000E+00  0.34996269501E-01  0.35000000000E-01  0.51099999109E-03 0.  1.
       11   -1    0    0    0    0 -0.00000000000E+00 -0.00000000000E+00 -0.34996269501E-01  0.35000000000E-01  0.51099999109E-03 0. -1.
       22    1    1    2    0    0 -0.22476744368E-02 -0.43736369341E-02  0.34651596991E-01  0.34998770185E-01  0.00000000000E+00 0.  1.
       22    1    1    2    0    0  0.22474942320E-02  0.43747482578E-02 -0.34652496917E-01  0.34999788503E-01  0.00000000000E+00 0. -1.
       22    1    1    2    0    0  0.18020483036E-06 -0.11113237573E-05  0.89992643582E-06  0.14413125492E-05  0.00000000000E+00 0.  1.
</event>
<event>
 5   0  0.1792268E+06  0.9118800E+02  0.7546771E-02  0.1180000E+00
      -11   -1    0    0    0    0  0.00000000000E+00  0.00000000000E+00  0.34996269501E-01  0.35000000000E-01  0.51099999109E-03 0. -1.
       11   -1    0    0    0    0 -0.00000000000E+00 -0.00000000000E+00 -0.34996269501E-01  0.35000000000E-01  0.51099999109E-03 0.  1.
       22    1    1    2    0    0  0.33598623587E-01  0.26207516962E-02 -0.30722249703E-02  0.33840425716E-01  0.00000000000E+00 0.  1.
       22    1    1    2    0    0 -0.34325039791E-01 -0.34836022595E-02  0.19315081837E-02  0.34555384026E-01  0.00000000000E+00 0. -1.
       22    1    1    2    0    0  0.72641620389E-03  0.86285056331E-03  0.11407167866E-02  0.16041902578E-02  0.00000000000E+00 0.  1.
</event>
<event>
 5   0  0.1792268E+06  0.9118800E+02  0.7546771E-02  0.1180000E+00
      -11   -1    0    0    0    0  0.00000000000E+00  0.00000000000E+00  0.34996269501E-01  0.35000000000E-01  0.51099999109E-03 0.  1.
       11   -1    0    0    0    0 -0.00000000000E+00 -0.00000000000E+00 -0.34996269501E-01  0.35000000000E-01  0.51099999109E-03 0.  1.
       22    1    1    2    0    0  0.65354341114E-02  0.34426955783E-02  0.23081502233E-01  0.24234681702E-01  0.00000000000E+00 0. -1.
       22    1    1    2    0    0  0.00000000000E+00 -0.00000000000E+00  0.10946183161E-01  0.10945102544E-01  0.00000000000E+00 0.  1.
       22    1    1    2    0    0 -0.65354341114E-02 -0.34426955783E-02 -0.34027685394E-01  0.34820215754E-01  0.00000000000E+00 0.  1.
</event>
<event>
 5   0  0.1792268E+06  0.9118800E+02  0.7546771E-02  0.1180000E+00
      -11   -1    0    0    0    0  0.00000000000E+00  0.00000000000E+00  0.34996269501E-01  0.35000000000E-01  0.51099999109E-03 0.  1.
       11   -1    0    0    0    0 -0.00000000000E+00 -0.00000000000E+00 -0.34996269501E-01  0.35000000000E-01  0.51099999109E-03 0. -1.
       22    1    1    2    0    0 -0.73211467735E-05  0.42555072539E-02  0.33779200040E-01  0.34046200242E-01  0.00000000000E+00 0.  1.
       22    1    1    2    0    0 -0.14811281990E-02  0.13147213628E-02 -0.32567947797E-03  0.20070625616E-02  0.00000000000E+00 0.  1.
       22    1    1    2    0    0  0.14884493458E-02 -0.55702286167E-02 -0.33453520562E-01  0.33946737196E-01  0.00000000000E+00 0. -1.
</event>
<event>
 5   0  0.1792268E+06  0.9118800E+02  0.7546771E-02  0.1180000E+00
      -11   -1    0    0    0    0  0.00000000000E+00  0.00000000000E+00  0.34996269501E-01  0.35000000000E-01  0.51099999109E-03 0. -1.
       11   -1    0    0    0    0 -0.00000000000E+00 -0.00000000000E+00 -0.34996269501E-01  0.35000000000E-01  0.51099999109E-03 0.  1.
       22    1    1    2    0    0  0.30513629537E-02  0.10304251063E-01 -0.33250512411E-01  0.34944026406E-01  0.00000000000E+00 0.  1.
       22    1    1    2    0    0 -0.15506587577E-03 -0.41264838396E-04  0.25706009217E-02  0.25756042614E-02  0.00000000000E+00 0. -1.
       22    1    1    2    0    0 -0.28962970780E-02 -0.10262986225E-01  0.30679911489E-01  0.32480369333E-01  0.00000000000E+00 0. -1.
</event>
<event>
 5   0  0.1792268E+06  0.9118800E+02  0.7546771E-02  0.1180000E+00
      -11   -1    0    0    0    0  0.00000000000E+00  0.00000000000E+00  0.34996269501E-01  0.35000000000E-01  0.51099999109E-03 0. -1.
       11   -1    0    0    0    0 -0.00000000000E+00 -0.00000000000E+00 -0.34996269501E-01  0.35000000000E-01  0.51099999109E-03 0.  1.
       22    1    1    2    0    0 -0.12686152356E-04 -0.75894421286E-05  0.23236814674E-04  0.27540654487E-04  0.00000000000E+00 0. -1.
       22    1    1    2    0    0 -0.31343413795E-02  0.19729861355E-02 -0.34800906828E-01  0.34997426851E-01  0.00000000000E+00 0.  1.
       22    1    1    2    0    0  0.31470275318E-02 -0.19653966934E-02  0.34777670013E-01  0.34975032494E-01  0.00000000000E+00 0. -1.
</event>
<event>
 5   0  0.1792268E+06  0.9118800E+02  0.7546771E-02  0.1180000E+00
      -11   -1    0    0    0    0  0.00000000000E+00  0.00000000000E+00  0.34996269501E-01  0.35000000000E-01  0.51099999109E-03 0.  1.
       11   -1    0    0    0    0 -0.00000000000E+00 -0.00000000000E+00 -0.34996269501E-01  0.35000000000E-01  0.51099999109E-03 0. -1.
       22    1    1    2    0    0  0.40925836795E-03 -0.20196436994E-03 -0.34996043247E-01  0.34999018914E-01  0.00000000000E+00 0. -1.
       22    1    1    2    0    0  0.42122178088E-05  0.79882330478E-04  0.14763738962E-02  0.14785394181E-02  0.00000000000E+00 0.  1.
       22    1    1    2    0    0 -0.41347058576E-03  0.12208203946E-03  0.33519669351E-01  0.33522441667E-01  0.00000000000E+00 0.  1.
</event>
<event>
 5   0  0.1792268E+06  0.9118800E+02  0.7546771E-02  0.1180000E+00
      -11   -1    0    0    0    0  0.00000000000E+00  0.00000000000E+00  0.34996269501E-01  0.35000000000E-01  0.51099999109E-03 0.  1.
       11   -1    0    0    0    0 -0.00000000000E+00 -0.00000000000E+00 -0.34996269501E-01  0.35000000000E-01  0.51099999109E-03 0. -1.
       22    1    1    2    0    0  0.39686585663E-02 -0.98658613100E-02  0.33018508212E-01  0.34688720858E-01  0.00000000000E+00 0.  1.
       22    1    1    2    0    0  0.39255077465E-05  0.53846258380E-06  0.31872488614E-03  0.31874951388E-03  0.00000000000E+00 0.  1.
       22    1    1    2    0    0 -0.39725840740E-02  0.98653228475E-02 -0.33337233098E-01  0.34992529628E-01  0.00000000000E+00 0. -1.
</event>
<event>
 5   0  0.1792268E+06  0.9118800E+02  0.7546771E-02  0.1180000E+00
      -11   -1    0    0    0    0  0.00000000000E+00  0.00000000000E+00  0.34996269501E-01  0.35000000000E-01  0.51099999109E-03 0. -1.
       11   -1    0    0    0    0 -0.00000000000E+00 -0.00000000000E+00 -0.34996269501E-01  0.35000000000E-01  0.51099999109E-03 0.  1.
       22    1    1    2    0    0 -0.19596062659E-02  0.48813638898E-02 -0.33695240141E-01  0.34103327965E-01  0.00000000000E+00 0.  1.
       22    1    1    2    0    0  0.30613999423E-02 -0.33280349976E-02  0.33690137760E-01  0.33992254542E-01  0.00000000000E+00 0. -1.
       22    1    1    2    0    0 -0.11017936764E-02 -0.15533288922E-02  0.51023812475E-05  0.19044174928E-02  0.00000000000E+00 0. -1.
</event>
<event>
 5   0  0.1792268E+06  0.9118800E+02  0.7546771E-02  0.1180000E+00
      -11   -1    0    0    0    0  0.00000000000E+00  0.00000000000E+00  0.34996269501E-01  0.35000000000E-01  0.51099999109E-03 0.  1.
       11   -1    0    0    0    0 -0.00000000000E+00 -0.00000000000E+00 -0.34996269501E-01  0.35000000000E-01  0.51099999109E-03 0.  1.
       22    1    1    2    0    0 -0.15593029951E-09 -0.67510875147E-10 -0.35001023771E-01  0.34999955634E-01  0.00000000000E+00 0.  1.
       22    1    1    2    0    0  0.22723246054E-05  0.98381535348E-06  0.34966891358E-01  0.34965822265E-01  0.00000000000E+00 0.  1.
       22    1    1    2    0    0 -0.22721686751E-05 -0.98374784261E-06  0.34132413568E-04  0.34222100553E-04  0.00000000000E+00 0. -1.
</event>
<event>
 5   0  0.1792268E+06  0.9118800E+02  0.7546771E-02  0.1180000E+00
      -11   -1    0    0    0    0  0.00000000000E+00  0.00000000000E+00  0.34996269501E-01  0.35000000000E-01  0.51099999109E-03 0. -1.
       11   -1    0    0    0    0 -0.00000000000E+00 -0.00000000000E+00 -0.34996269501E-01  0.35000000000E-01  0.51099999109E-03 0.  1.
       22    1    1    2    0    0 -0.63101642381E-04 -0.51431936171E-04  0.83910419408E-03  0.84304383626E-03  0.00000000000E+00 0. -1.
       22    1    1    2    0    0  0.27006755136E-01 -0.70839500638E-02 -0.20848841445E-01  0.34845679231E-01  0.00000000000E+00 0.  1.
       22    1    1    2    0    0 -0.26943653494E-01  0.71353820000E-02  0.20009737251E-01  0.34311276932E-01  0.00000000000E+00 0. -1.
</event>
<event>
 5   0  0.1792268E+06  0.9118800E+02  0.7546771E-02  0.1180000E+00
      -11   -1    0    0    0    0  0.00000000000E+00  0.00000000000E+00  0.34996269501E-01  0.35000000000E-01  0.51099999109E-03 0.  1.
       11   -1    0    0    0    0 -0.00000000000E+00 -0.00000000000E+00 -0.34996269501E-01  0.35000000000E-01  0.51099999109E-03 0. -1.
       22    1    1    2    0    0 -0.12716276098E-02  0.19042074635E-02 -0.34911839474E-01  0.34986848648E-01  0.00000000000E+00 0. -1.
       22    1    1    2    0    0  0.12335370735E-02 -0.18285433356E-02  0.34813715659E-01  0.34883520213E-01  0.00000000000E+00 0.  1.
       22    1    1    2    0    0  0.38090536351E-04 -0.75664127909E-04  0.98123815249E-04  0.12963113951E-03  0.00000000000E+00 0.  1.
</event>
<event>
 5   0  0.1792268E+06  0.9118800E+02  0.7546771E-02  0.1180000E+00
      -11   -1    0    0    0    0  0.00000000000E+00  0.00000000000E+00  0.34996269501E-01  0.35000000000E-01  0.51099999109E-03 0. -1.
       11   -1    0    0    0    0 -0.00000000000E+00 -0.00000000000E+00 -0.34996269501E-01  0.35000000000E-01  0.51099999109E-03 0.  1.
       22    1    1    2    0    0 -0.17008213204E-02 -0.23435517241E-02 -0.34880008095E-01  0.34999999894E-01  0.00000000000E+00 0.  1.
       22    1    1    2    0    0  0.17008216355E-02  0.23435496369E-02  0.34880001117E-01  0.34999992815E-01  0.00000000000E+00 0. -1.
       22    1    1    2    0    0 -0.31514216219E-09  0.20872800724E-08  0.69787282524E-08  0.72910013513E-08  0.00000000000E+00 0. -1.
</event>
<event>
 5   0  0.1792268E+06  0.9118800E+02  0.7546771E-02  0.1180000E+00
      -11   -1    0    0    0    0  0.00000000000E+00  0.00000000000E+00  0.34996269501E-01  0.35000000000E-01  0.51099999109E-03 0.  1.
       11   -1    0    0    0    0 -0.00000000000E+00 -0.00000000000E+00 -0.34996269501E-01  0.35000000000E-01  0.51099999109E-03 0. -1.
       22    1    1    2    0    0  0.61947092525E-02  0.24383032772E-02  0.33700110324E-01  0.34351378159E-01  0.00000000000E+00 0.  1.
       22    1    1    2    0    0  0.16662158562E-03  0.53423425981E-04  0.62560926945E-03  0.64961817498E-03  0.00000000000E+00 0. -1.
       22    1    1    2    0    0 -0.63613308381E-02 -0.24917267031E-02 -0.34325719593E-01  0.34999003666E-01  0.00000000000E+00 0. -1.
</event>
<event>
 5   0  0.1792268E+06  0.9118800E+02  0.7546771E-02  0.1180000E+00
      -11   -1    0    0    0    0  0.00000000000E+00  0.00000000000E+00  0.34996269501E-01  0.35000000000E-01  0.51099999109E-03 0.  1.
       11   -1    0    0    0    0 -0.00000000000E+00 -0.00000000000E+00 -0.34996269501E-01  0.35000000000E-01  0.51099999109E-03 0. -1.
       22    1    1    2    0    0 -0.96104628250E-05 -0.10633533690E-04  0.11703782298E-03  0.11791219208E-03  0.00000000000E+00 0.  1.
       22    1    1    2    0    0  0.17224634381E-01  0.26647767513E-01 -0.14705407101E-01  0.34971996526E-01  0.00000000000E+00 0. -1.
       22    1    1    2    0    0 -0.17215023918E-01 -0.26637133979E-01  0.14588369278E-01  0.34910091282E-01  0.00000000000E+00 0.  1.
</event>
<event>
 5   0  0.1792268E+06  0.9118800E+02  0.7546771E-02  0.1180000E+00
      -11   -1    0    0    0    0  0.00000000000E+00  0.00000000000E+00  0.34996269501E-01  0.35000000000E-01  0.51099999109E-03 0. -1.
       11   -1    0    0    0    0 -0.00000000000E+00 -0.00000000000E+00 -0.34996269501E-01  0.35000000000E-01  0.51099999109E-03 0.  1.
       22    1    1    2    0    0 -0.23326589139E-02 -0.20283574260E-02  0.33855932954E-01  0.33996760546E-01  0.00000000000E+00 0. -1.
       22    1    1    2    0    0 -0.10587931786E-04 -0.49220998378E-04  0.10028282640E-02  0.10040912996E-02  0.00000000000E+00 0.  1.
       22    1    1    2    0    0  0.23432468457E-02  0.20775784244E-02 -0.34858761218E-01  0.34999148154E-01  0.00000000000E+00 0.  1.
</event>
<event>
 5   0  0.1792268E+06  0.9118800E+02  0.7546771E-02  0.1180000E+00
      -11   -1    0    0    0    0  0.00000000000E+00  0.00000000000E+00  0.34996269501E-01  0.35000000000E-01  0.51099999109E-03 0. -1.
       11   -1    0    0    0    0 -0.00000000000E+00 -0.00000000000E+00 -0.34996269501E-01  0.35000000000E-01  0.51099999109E-03 0.  1.
       22    1    1    2    0    0  0.36554696618E-08  0.28023212905E-08  0.71316171899E-07  0.71464759409E-07  0.00000000000E+00 0. -1.
       22    1    1    2    0    0 -0.20104728638E-01 -0.10986015498E-01  0.26459460801E-01  0.34999938800E-01  0.00000000000E+00 0. -1.
       22    1    1    2    0    0  0.20104724982E-01  0.10986012696E-01 -0.26459532117E-01  0.34999989735E-01  0.00000000000E+00 0.  1.
</event>
<event>
 5   0  0.1792268E+06  0.9118800E+02  0.7546771E-02  0.1180000E+00
      -11   -1    0    0    0    0  0.00000000000E+00  0.00000000000E+00  0.34996269501E-01  0.35000000000E-01  0.51099999109E-03 0. -1.
       11   -1    0    0    0    0 -0.00000000000E+00 -0.00000000000E+00 -0.34996269501E-01  0.35000000000E-01  0.51099999109E-03 0. -1.
       22    1    1    2    0    0 -0.25990513961E-11 -0.86274201147E-12 -0.35000588842E-01  0.34999995205E-01  0.00000000000E+00 0. -1.
       22    1    1    2    0    0  0.42071976580E-07  0.13965580579E-07  0.35000491215E-01  0.34999897576E-01  0.00000000000E+00 0. -1.
       22    1    1    2    0    0 -0.42069377529E-07 -0.13964717837E-07  0.97627476506E-07  0.10721926151E-06  0.00000000000E+00 0. -1.
</event>
<event>
 5   0  0.1792268E+06  0.9118800E+02  0.7546771E-02  0.1180000E+00
      -11   -1    0    0    0    0  0.00000000000E+00  0.00000000000E+00  0.34996269501E-01  0.35000000000E-01  0.51099999109E-03 0.  1.
       11   -1    0    0    0    0 -0.00000000000E+00 -0.00000000000E+00 -0.34996269501E-01  0.35000000000E-01  0.51099999109E-03 0. -1.
       22    1    1    2    0    0 -0.12059144782E-03 -0.17762524610E-03 -0.14699692758E-01  0.14701260497E-01  0.00000000000E+00 0. -1.
       22    1    1    2    0    0 -0.33863284530E-02 -0.24008748435E-02 -0.19949704557E-01  0.20377000082E-01  0.00000000000E+00 0. -1.
       22    1    1    2    0    0  0.35069199009E-02  0.25785000896E-02  0.34649397315E-01  0.34921739421E-01  0.00000000000E+00 0.  1.
</event>
<event>
 5   0  0.1792268E+06  0.9118800E+02  0.7546771E-02  0.1180000E+00
      -11   -1    0    0    0    0  0.00000000000E+00  0.00000000000E+00  0.34996269501E-01  0.35000000000E-01  0.51099999109E-03 0. -1.
       11   -1    0    0    0    0 -0.00000000000E+00 -0.00000000000E+00 -0.34996269501E-01  0.35000000000E-01  0.51099999109E-03 0. -1.
       22    1    1    2    0    0 -0.95687962477E-04  0.62794799713E-03  0.34774428270E-01  0.34780229102E-01  0.00000000000E+00 0. -1.
       22    1    1    2    0    0 -0.12825752768E-04  0.35358846711E-03  0.70563462859E-04  0.36078872807E-03  0.00000000000E+00 0. -1.
       22    1    1    2    0    0  0.10851371525E-03 -0.98153646424E-03 -0.34844991733E-01  0.34858982170E-01  0.00000000000E+00 0. -1.
</event>
<event>
 5   0  0.1792268E+06  0.9118800E+02  0.7546771E-02  0.1180000E+00
      -11   -1    0    0    0    0  0.00000000000E+00  0.00000000000E+00  0.34996269501E-01  0.35000000000E-01  0.51099999109E-03 0.  1.
       11   -1    0    0    0    0 -0.00000000000E+00 -0.00000000000E+00 -0.34996269501E-01  0.35000000000E-01  0.51099999109E-03 0. -1.
       22    1    1    2    0    0  0.96550332375E-03  0.27711597247E-03 -0.34983455142E-01  0.34997873130E-01  0.00000000000E+00 0. -1.
       22    1    1    2    0    0 -0.70553597025E-04  0.52189111719E-04  0.70933598367E-03  0.71474404591E-03  0.00000000000E+00 0. -1.
       22    1    1    2    0    0 -0.89494972672E-03 -0.32930508419E-03  0.34274119158E-01  0.34287382824E-01  0.00000000000E+00 0.  1.
</event>
<event>
 5   0  0.1792268E+06  0.9118800E+02  0.7546771E-02  0.1180000E+00
      -11   -1    0    0    0    0  0.00000000000E+00  0.00000000000E+00  0.34996269501E-01  0.35000000000E-01  0.51099999109E-03 0. -1.
       11   -1    0    0    0    0 -0.00000000000E+00 -0.00000000000E+00 -0.34996269501E-01  0.35000000000E-01  0.51099999109E-03 0.  1.
       22    1    1    2    0    0 -0.14292761185E-02  0.63165402698E-02 -0.34393784614E-01  0.34998198972E-01  0.00000000000E+00 0.  1.
       22    1    1    2    0    0  0.14332540154E-02 -0.63184678881E-02  0.34392126168E-01  0.34997079819E-01  0.00000000000E+00 0. -1.
       22    1    1    2    0    0 -0.39778969375E-05  0.19276182888E-05  0.16584460734E-05  0.47212095580E-05  0.00000000000E+00 0. -1.
</event>
<event>
 5   0  0.1792268E+06  0.9118800E+02  0.7546771E-02  0.1180000E+00
      -11   -1    0    0    0    0  0.00000000000E+00  0.00000000000E+00  0.34996269501E-01  0.35000000000E-01  0.51099999109E-03 0.  1.
       11   -1    0    0    0    0 -0.00000000000E+00 -0.00000000000E+00 -0.34996269501E-01  0.35000000000E-01  0.51099999109E-03 0.  1.
       22    1    1    2    0    0  0.14880461126E-06 -0.11439961471E-07  0.88209396683E-06  0.89463034342E-06  0.00000000000E+00 0. -1.
       22    1    1    2    0    0 -0.14881632911E-06  0.11440862328E-07  0.35000892690E-01  0.34999111616E-01  0.00000000000E+00 0.  1.
       22    1    1    2    0    0  0.11717843594E-10 -0.90085702381E-12 -0.35001774784E-01  0.34999993754E-01  0.00000000000E+00 0.  1.
</event>
<event>
 5   0  0.1792268E+06  0.9118800E+02  0.7546771E-02  0.1180000E+00
      -11   -1    0    0    0    0  0.00000000000E+00  0.00000000000E+00  0.34996269501E-01  0.35000000000E-01  0.51099999109E-03 0. -1.
       11   -1    0    0    0    0 -0.00000000000E+00 -0.00000000000E+00 -0.34996269501E-01  0.35000000000E-01  0.51099999109E-03 0.  1.
       22    1    1    2    0    0 -0.70434642150E-08 -0.54939744525E-08  0.11785451323E-06  0.11819255659E-06  0.00000000000E+00 0.  1.
       22    1    1    2    0    0  0.70087164782E-02 -0.59509521544E-02 -0.33770755422E-01  0.34999998000E-01  0.00000000000E+00 0.  1.
       22    1    1    2    0    0 -0.70087094347E-02  0.59509576484E-02  0.33770637567E-01  0.34999883808E-01  0.00000000000E+00 0. -1.
</event>
<event>
 5   0  0.1792268E+06  0.9118800E+02  0.7546771E-02  0.1180000E+00
      -11   -1    0    0    0    0  0.00000000000E+00  0.00000000000E+00  0.34996269501E-01  0.35000000000E-01  0.51099999109E-03 0. -1.
       11   -1    0    0    0    0 -0.00000000000E+00 -0.00000000000E+00 -0.34996269501E-01  0.35000000000E-01  0.51099999109E-03 0.  1.
       22    1    1    2    0    0 -0.15694312003E-02 -0.21934492293E-02  0.34895926067E-01  0.34999999856E-01  0.00000000000E+00 0. -1.
       22    1    1    2    0    0  0.15694309398E-02  0.21934494714E-02 -0.34895925988E-01  0.34999999780E-01  0.00000000000E+00 0.  1.
       22    1    1    2    0    0  0.26046588052E-09 -0.24200230513E-09 -0.79131417411E-10  0.36423807026E-09  0.00000000000E+00 0. -1.
</event>
<event>
 5   0  0.1792268E+06  0.9118800E+02  0.7546771E-02  0.1180000E+00
      -11   -1    0    0    0    0  0.00000000000E+00  0.00000000000E+00  0.34996269501E-01  0.35000000000E-01  0.51099999109E-03 0.  1.
       11   -1    0    0    0    0 -0.00000000000E+00 -0.00000000000E+00 -0.34996269501E-01  0.35000000000E-01  0.51099999109E-03 0. -1.
       22    1    1    2    0    0 -0.13733388421E-05 -0.60555331282E-07  0.28028308771E-04  0.28061999556E-04  0.00000000000E+00 0. -1.
       22    1    1    2    0    0  0.86629130224E-03 -0.12410193146E-02  0.34939219603E-01  0.34971983874E-01  0.00000000000E+00 0.  1.
       22    1    1    2    0    0 -0.86491796340E-03  0.12410798699E-02 -0.34967247912E-01  0.34999954127E-01  0.00000000000E+00 0. -1.
</event>
<event>
 5   0  0.1792268E+06  0.9118800E+02  0.7546771E-02  0.1180000E+00
      -11   -1    0    0    0    0  0.00000000000E+00  0.00000000000E+00  0.34996269501E-01  0.35000000000E-01  0.51099999109E-03 0. -1.
       11   -1    0    0    0    0 -0.00000000000E+00 -0.00000000000E+00 -0.34996269501E-01  0.35000000000E-01  0.51099999109E-03 0.  1.
       22    1    1    2    0    0 -0.14219398807E-03  0.79237961159E-02  0.16933378551E-01  0.18696151293E-01  0.00000000000E+00 0.  1.
       22    1    1    2    0    0  0.53190295014E-03  0.10761757474E-02 -0.32926384672E-01  0.32948260691E-01  0.00000000000E+00 0.  1.
       22    1    1    2    0    0 -0.38970896207E-03 -0.89999718633E-02  0.15993006121E-01  0.18355588016E-01  0.00000000000E+00 0. -1.
</event>
<event>
 5   0  0.1792268E+06  0.9118800E+02  0.7546771E-02  0.1180000E+00
      -11   -1    0    0    0    0  0.00000000000E+00  0.00000000000E+00  0.34996269501E-01  0.35000000000E-01  0.51099999109E-03 0.  1.
       11   -1    0    0    0    0 -0.00000000000E+00 -0.00000000000E+00 -0.34996269501E-01  0.35000000000E-01  0.51099999109E-03 0. -1.
       22    1    1    2    0    0 -0.47648130322E-05 -0.20467568632E-05 -0.16324520350E-03  0.16332755163E-03  0.00000000000E+00 0. -1.
       22    1    1    2    0    0  0.17451644450E-01 -0.19834572737E-01  0.22914906000E-01  0.34972318862E-01  0.00000000000E+00 0.  1.
       22    1    1    2    0    0 -0.17446879637E-01  0.19836619493E-01 -0.22751660796E-01  0.34864353586E-01  0.00000000000E+00 0. -1.
</event>
<event>
 5   0  0.1792268E+06  0.9118800E+02  0.7546771E-02  0.1180000E+00
      -11   -1    0    0    0    0  0.00000000000E+00  0.00000000000E+00  0.34996269501E-01  0.35000000000E-01  0.51099999109E-03 0. -1.
       11   -1    0    0    0    0 -0.00000000000E+00 -0.00000000000E+00 -0.34996269501E-01  0.35000000000E-01  0.51099999109E-03 0.  1.
       22    1    1    2    0    0  0.14636784812E-02 -0.69823444604E-02 -0.34127618495E-01  0.34865309880E-01  0.00000000000E+00 0.  1.
       22    1    1    2    0    0 -0.14578441080E-02  0.68394225985E-02  0.34243714444E-01  0.34950464802E-01  0.00000000000E+00 0. -1.
       22    1    1    2    0    0 -0.58343731685E-05  0.14292186189E-03 -0.11609594936E-03  0.18422531850E-03  0.00000000000E+00 0.  1.
</event>
<event>
 5   0  0.1792268E+06  0.9118800E+02  0.7546771E-02  0.1180000E+00
      -11   -1    0    0    0    0  0.00000000000E+00  0.00000000000E+00  0.34996269501E-01  0.35000000000E-01  0.51099999109E-03 0.  1.
       11   -1    0    0    0    0 -0.00000000000E+00 -0.00000000000E+00 -0.34996269501E-01  0.35000000000E-01  0.51099999109E-03 0. -1.
       22    1    1    2    0    0  0.85386101291E-04  0.78401396535E-04  0.12697901739E-03  0.17193381322E-03  0.00000000000E+00 0. -1.
       22    1    1    2    0    0  0.13880796825E-01  0.89712123009E-02 -0.30786966347E-01  0.34942759872E-01  0.00000000000E+00 0. -1.
       22    1    1    2    0    0 -0.13966182926E-01 -0.90496136975E-02  0.30659987329E-01  0.34885306314E-01  0.00000000000E+00 0.  1.
</event>
<event>
 5   0  0.1792268E+06  0.9118800E+02  0.7546771E-02  0.1180000E+00
      -11   -1    0    0    0    0  0.00000000000E+00  0.00000000000E+00  0.34996269501E-01  0.35000000000E-01  0.51099999109E-03 0. -1.
       11   -1    0    0    0    0 -0.00000000000E+00 -0.00000000000E+00 -0.34996269501E-01  0.35000000000E-01  0.51099999109E-03 0.  1.
       22    1    1    2    0    0  0.13674123756E-02 -0.45996732330E-02  0.66883355651E-02  0.82316853126E-02  0.00000000000E+00 0.  1.
       22    1    1    2    0    0  0.17007143989E-01  0.99746568582E-02  0.20547594482E-01  0.28477014681E-01  0.00000000000E+00 0. -1.
       22    1    1    2    0    0 -0.18374556365E-01 -0.53749836253E-02 -0.27235930047E-01  0.33291300007E-01  0.00000000000E+00 0.  1.
</event>
<event>
 5   0  0.1792268E+06  0.9118800E+02  0.7546771E-02  0.1180000E+00
      -11   -1    0    0    0    0  0.00000000000E+00  0.00000000000E+00  0.34996269501E-01  0.35000000000E-01  0.51099999109E-03 0.  1.
       11   -1    0    0    0    0 -0.00000000000E+00 -0.00000000000E+00 -0.34996269501E-01  0.35000000000E-01  0.51099999109E-03 0. -1.
       22    1    1    2    0    0 -0.25674207369E-02  0.15042089030E-01 -0.31498307739E-01  0.34999992601E-01  0.00000000000E+00 0. -1.
       22    1    1    2    0    0  0.25674015729E-02 -0.15042088800E-01  0.31498304198E-01  0.34999987909E-01  0.00000000000E+00 0.  1.
       22    1    1    2    0    0  0.19164030181E-07 -0.23026927455E-09  0.35415910974E-08  0.19489893387E-07  0.00000000000E+00 0.  1.
</event>
<event>
 5   0  0.1792268E+06  0.9118800E+02  0.7546771E-02  0.1180000E+00
      -11   -1    0    0    0    0  0.00000000000E+00  0.00000000000E+00  0.34996269501E-01  0.35000000000E-01  0.51099999109E-03 0. -1.
       11   -1    0    0    0    0 -0.00000000000E+00 -0.00000000000E+00 -0.34996269501E-01  0.35000000000E-01  0.51099999109E-03 0.  1.
       22    1    1    2    0    0  0.19922251864E-07 -0.30757450710E-07  0.40101055902E-06  0.40268149366E-06  0.00000000000E+00 0. -1.
       22    1    1    2    0    0  0.19297690828E-01  0.15711085210E-01  0.24611726180E-01  0.34999659075E-01  0.00000000000E+00 0. -1.
       22    1    1    2    0    0 -0.19297710750E-01 -0.15711054453E-01 -0.24612127191E-01  0.34999938244E-01  0.00000000000E+00 0.  1.
</event>
<event>
 5   0  0.1792268E+06  0.9118800E+02  0.7546771E-02  0.1180000E+00
      -11   -1    0    0    0    0  0.00000000000E+00  0.00000000000E+00  0.34996269501E-01  0.35000000000E-01  0.51099999109E-03 0. -1.
       11   -1    0    0    0    0 -0.00000000000E+00 -0.00000000000E+00 -0.34996269501E-01  0.35000000000E-01  0.51099999109E-03 0.  1.
       22    1    1    2    0    0 -0.16463591718E-07  0.14310476962E-07  0.82851327854E-06  0.82880039354E-06  0.00000000000E+00 0. -1.
       22    1    1    2    0    0 -0.91282638566E-02  0.22150327767E-03  0.33787106723E-01  0.34999183497E-01  0.00000000000E+00 0. -1.
       22    1    1    2    0    0  0.91282803202E-02 -0.22151758815E-03 -0.33787935236E-01  0.34999987703E-01  0.00000000000E+00 0.  1.
</event>
<event>
 5   0  0.1792268E+06  0.9118800E+02  0.7546771E-02  0.1180000E+00
      -11   -1    0    0    0    0  0.00000000000E+00  0.00000000000E+00  0.34996269501E-01  0.35000000000E-01  0.51099999109E-03 0. -1.
       11   -1    0    0    0    0 -0.00000000000E+00 -0.00000000000E+00 -0.34996269501E-01  0.35000000000E-01  0.51099999109E-03 0.  1.
       22    1    1    2    0    0  0.28370109286E-03  0.45172063570E-02  0.34390596443E-01  0.34687155595E-01  0.00000000000E+00 0. -1.
       22    1    1    2    0    0 -0.32379136127E-03 -0.45222202928E-02 -0.34702965527E-01  0.34997873273E-01  0.00000000000E+00 0.  1.
       22    1    1    2    0    0  0.40090268405E-04  0.50139357836E-05  0.31236908417E-03  0.31497113188E-03  0.00000000000E+00 0.  1.
</event>
<event>
 5   0  0.1792268E+06  0.9118800E+02  0.7546771E-02  0.1180000E+00
      -11   -1    0    0    0    0  0.00000000000E+00  0.00000000000E+00  0.34996269501E-01  0.35000000000E-01  0.51099999109E-03 0.  1.
       11   -1    0    0    0    0 -0.00000000000E+00 -0.00000000000E+00 -0.34996269501E-01  0.35000000000E-01  0.51099999109E-03 0. -1.
       22    1    1    2    0    0 -0.14346739504E-01  0.25567111451E-02 -0.31821838968E-01  0.34999930594E-01  0.00000000000E+00 0. -1.
       22    1    1    2    0    0 -0.51295910634E-07  0.37041815526E-07  0.12496749509E-05  0.12512756888E-05  0.00000000000E+00 0.  1.
       22    1    1    2    0    0  0.14346790800E-01 -0.25567481869E-02  0.31820589293E-01  0.34998818130E-01  0.00000000000E+00 0.  1.
</event>
<event>
 5   0  0.1792268E+06  0.9118800E+02  0.7546771E-02  0.1180000E+00
      -11   -1    0    0    0    0  0.00000000000E+00  0.00000000000E+00  0.34996269501E-01  0.35000000000E-01  0.51099999109E-03 0.  1.
       11   -1    0    0    0    0 -0.00000000000E+00 -0.00000000000E+00 -0.34996269501E-01  0.35000000000E-01  0.51099999109E-03 0. -1.
       22    1    1    2    0    0 -0.11334880503E-01  0.18197327757E-01 -0.75058652626E-02  0.22714758789E-01  0.00000000000E+00 0. -1.
       22    1    1    2    0    0  0.71461274031E-02 -0.16639527505E-01  0.24074134689E-01  0.30124823211E-01  0.00000000000E+00 0.  1.
       22    1    1    2    0    0  0.41887530995E-02 -0.15578002524E-02 -0.16568269427E-01  0.17160418000E-01  0.00000000000E+00 0. -1.
</event>
<event>
 5   0  0.1792268E+06  0.9118800E+02  0.7546771E-02  0.1180000E+00
      -11   -1    0    0    0    0  0.00000000000E+00  0.00000000000E+00  0.34996269501E-01  0.35000000000E-01  0.51099999109E-03 0. -1.
       11   -1    0    0    0    0 -0.00000000000E+00 -0.00000000000E+00 -0.34996269501E-01  0.35000000000E-01  0.51099999109E-03 0. -1.
       22    1    1    2    0    0  0.13481958475E-03 -0.27284838636E-03 -0.22890454323E-03  0.38081472172E-03  0.00000000000E+00 0.  1.
       22    1    1    2    0    0 -0.00000000000E+00  0.00000000000E+00  0.34924314972E-01  0.34922440080E-01  0.00000000000E+00 0. -1.
       22    1    1    2    0    0 -0.13481958475E-03  0.27284838636E-03 -0.34695410429E-01  0.34696745199E-01  0.00000000000E+00 0. -1.
</event>
<event>
 5   0  0.1792268E+06  0.9118800E+02  0.7546771E-02  0.1180000E+00
      -11   -1    0    0    0    0  0.00000000000E+00  0.00000000000E+00  0.34996269501E-01  0.35000000000E-01  0.51099999109E-03 0. -1.
       11   -1    0    0    0    0 -0.00000000000E+00 -0.00000000000E+00 -0.34996269501E-01  0.35000000000E-01  0.51099999109E-03 0.  1.
       22    1    1    2    0    0  0.14343558452E-02  0.80194842214E-03 -0.34958863872E-01  0.34997466496E-01  0.00000000000E+00 0.  1.
       22    1    1    2    0    0 -0.13707812759E-02 -0.72079812187E-03  0.34358181844E-01  0.34393069808E-01  0.00000000000E+00 0. -1.
       22    1    1    2    0    0 -0.63574569330E-04 -0.81150300275E-04  0.60068202790E-03  0.60946369518E-03  0.00000000000E+00 0.  1.
</event>
<event>
 5   0  0.1792268E+06  0.9118800E+02  0.7546771E-02  0.1180000E+00
      -11   -1    0    0    0    0  0.00000000000E+00  0.00000000000E+00  0.34996269501E-01  0.35000000000E-01  0.51099999109E-03 0. -1.
       11   -1    0    0    0    0 -0.00000000000E+00 -0.00000000000E+00 -0.34996269501E-01  0.35000000000E-01  0.51099999109E-03 0.  1.
       22    1    1    2    0    0  0.86696920945E-03  0.79500610349E-02 -0.15656466295E-01  0.17580672425E-01  0.00000000000E+00 0.  1.
       22    1    1    2    0    0 -0.74729317759E-03  0.34908620293E-03 -0.17865793154E-01  0.17884822428E-01  0.00000000000E+00 0.  1.
       22    1    1    2    0    0 -0.11967603186E-03 -0.82991472378E-02  0.33522259449E-01  0.34534505147E-01  0.00000000000E+00 0. -1.
</event>
<event>
 5   0  0.1792268E+06  0.9118800E+02  0.7546771E-02  0.1180000E+00
      -11   -1    0    0    0    0  0.00000000000E+00  0.00000000000E+00  0.34996269501E-01  0.35000000000E-01  0.51099999109E-03 0.  1.
       11   -1    0    0    0    0 -0.00000000000E+00 -0.00000000000E+00 -0.34996269501E-01  0.35000000000E-01  0.51099999109E-03 0. -1.
       22    1    1    2    0    0  0.12725151509E-03  0.21050039436E-04  0.54129894719E-02  0.54145259326E-02  0.00000000000E+00 0. -1.
       22    1    1    2    0    0 -0.10903315490E-01 -0.98364065748E-02 -0.31470631164E-01  0.34728055069E-01  0.00000000000E+00 0. -1.
       22    1    1    2    0    0  0.10776063975E-01  0.98153565353E-02  0.26057641692E-01  0.29857418999E-01  0.00000000000E+00 0.  1.
</event>
<event>
 5   0  0.1792268E+06  0.9118800E+02  0.7546771E-02  0.1180000E+00
      -11   -1    0    0    0    0  0.00000000000E+00  0.00000000000E+00  0.34996269501E-01  0.35000000000E-01  0.51099999109E-03 0.  1.
       11   -1    0    0    0    0 -0.00000000000E+00 -0.00000000000E+00 -0.34996269501E-01  0.35000000000E-01  0.51099999109E-03 0. -1.
       22    1    1    2    0    0  0.15576914421E-07  0.68318601075E-07  0.12187540458E-05  0.12207667655E-05  0.00000000000E+00 0. -1.
       22    1    1    2    0    0  0.33333725412E-01 -0.49841399915E-02  0.94322159242E-02  0.34999222828E-01  0.00000000000E+00 0.  1.
       22    1    1    2    0    0 -0.33333740989E-01  0.49840716729E-02 -0.94334346782E-02  0.34999556406E-01  0.00000000000E+00 0. -1.
</event>
<event>
 5   0  0.1792268E+06  0.9118800E+02  0.7546771E-02  0.1180000E+00
      -11   -1    0    0    0    0  0.00000000000E+00  0.00000000000E+00  0.34996269501E-01  0.35000000000E-01  0.51099999109E-03 0.  1.
       11   -1    0    0    0    0 -0.00000000000E+00 -0.00000000000E+00 -0.34996269501E-01  0.35000000000E-01  0.51099999109E-03 0. -1.
       22    1    1    2    0    0  0.23821067563E-02 -0.13985611926E-02 -0.34875386461E-01  0.34984610714E-01  0.00000000000E+00 0. -1.
       22    1    1    2    0    0 -0.25310594785E-02  0.14125031720E-02  0.34246969574E-01  0.34369410124E-01  0.00000000000E+00 0.  1.
       22    1    1    2    0    0  0.14895272216E-03 -0.13941979421E-04  0.62841688782E-03  0.64597916153E-03  0.00000000000E+00 0.  1.
</event>
<event>
 5   0  0.1792268E+06  0.9118800E+02  0.7546771E-02  0.1180000E+00
      -11   -1    0    0    0    0  0.00000000000E+00  0.00000000000E+00  0.34996269501E-01  0.35000000000E-01  0.51099999109E-03 0. -1.
       11   -1    0    0    0    0 -0.00000000000E+00 -0.00000000000E+00 -0.34996269501E-01  0.35000000000E-01  0.51099999109E-03 0. -1.
       22    1    1    2    0    0  0.39889391681E-11 -0.61510945490E-11 -0.35003653072E-01  0.34999999517E-01  0.00000000000E+00 0. -1.
       22    1    1    2    0    0  0.37808452499E-07 -0.58302058837E-07  0.20453291984E-05  0.20465092570E-05  0.00000000000E+00 0. -1.
       22    1    1    2    0    0 -0.37812441439E-07  0.58308209932E-07  0.35001607743E-01  0.34997953974E-01  0.00000000000E+00 0. -1.
</event>
<event>
 5   0  0.1792268E+06  0.9118800E+02  0.7546771E-02  0.1180000E+00
      -11   -1    0    0    0    0  0.00000000000E+00  0.00000000000E+00  0.34996269501E-01  0.35000000000E-01  0.51099999109E-03 0. -1.
       11   -1    0    0    0    0 -0.00000000000E+00 -0.00000000000E+00 -0.34996269501E-01  0.35000000000E-01  0.51099999109E-03 0.  1.
       22    1    1    2    0    0 -0.27836984910E-07 -0.16337690231E-07  0.46022209636E-06  0.46135257215E-06  0.00000000000E+00 0. -1.
       22    1    1    2    0    0  0.13117511045E-01 -0.85075063529E-02 -0.31313762625E-01  0.34999978430E-01  0.00000000000E+00 0.  1.
       22    1    1    2    0    0 -0.13117483208E-01  0.85075226906E-02  0.31313302403E-01  0.34999560218E-01  0.00000000000E+00 0. -1.
</event>
<event>
 5   0  0.1792268E+06  0.9118800E+02  0.7546771E-02  0.1180000E+00
      -11   -1    0    0    0    0  0.00000000000E+00  0.00000000000E+00  0.34996269501E-01  0.35000000000E-01  0.51099999109E-03 0. -1.
       11   -1    0    0    0    0 -0.00000000000E+00 -0.00000000000E+00 -0.34996269501E-01  0.35000000000E-01  0.51099999109E-03 0.  1.
       22    1    1    2    0    0 -0.85179213763E-03 -0.11423980173E-03  0.34828862247E-01  0.34839463916E-01  0.00000000000E+00 0. -1.
       22    1    1    2    0    0  0.85075302456E-03  0.10920567341E-03 -0.34989402181E-01  0.34999913879E-01  0.00000000000E+00 0.  1.
       22    1    1    2    0    0  0.10391130637E-05  0.50341283267E-05  0.16053993385E-03  0.16062220446E-03  0.00000000000E+00 0. -1.
</event>
<event>
 5   0  0.1792268E+06  0.9118800E+02  0.7546771E-02  0.1180000E+00
      -11   -1    0    0    0    0  0.00000000000E+00  0.00000000000E+00  0.34996269501E-01  0.35000000000E-01  0.51099999109E-03 0.  1.
       11   -1    0    0    0    0 -0.00000000000E+00 -0.00000000000E+00 -0.34996269501E-01  0.35000000000E-01  0.51099999109E-03 0. -1.
       22    1    1    2    0    0 -0.22827536504E-03 -0.43939416547E-03 -0.34974507364E-01  0.34978012268E-01  0.00000000000E+00 0. -1.
       22    1    1    2    0    0  0.78212375348E-03  0.78166849370E-03  0.17162486612E-01  0.17198071692E-01  0.00000000000E+00 0.  1.
       22    1    1    2    0    0 -0.55384838844E-03 -0.34227432823E-03  0.17812020752E-01  0.17823916040E-01  0.00000000000E+00 0. -1.
</event>
<event>
 5   0  0.1792268E+06  0.9118800E+02  0.7546771E-02  0.1180000E+00
      -11   -1    0    0    0    0  0.00000000000E+00  0.00000000000E+00  0.34996269501E-01  0.35000000000E-01  0.51099999109E-03 0. -1.
       11   -1    0    0    0    0 -0.00000000000E+00 -0.00000000000E+00 -0.34996269501E-01  0.35000000000E-01  0.51099999109E-03 0.  1.
       22    1    1    2    0    0 -0.42310881912E-02  0.25378653606E-01  0.23726763570E-01  0.34999106783E-01  0.00000000000E+00 0. -1.
       22    1    1    2    0    0  0.42307128186E-02 -0.25379356624E-01 -0.23727298139E-01  0.34999933580E-01  0.00000000000E+00 0.  1.
       22    1    1    2    0    0  0.37537258998E-06  0.70301795457E-06  0.53456968989E-06  0.95963721224E-06  0.00000000000E+00 0.  1.
</event>
<event>
 5   0  0.1792268E+06  0.9118800E+02  0.7546771E-02  0.1180000E+00
      -11   -1    0    0    0    0  0.00000000000E+00  0.00000000000E+00  0.34996269501E-01  0.35000000000E-01  0.51099999109E-03 0.  1.
       11   -1    0    0    0    0 -0.00000000000E+00 -0.00000000000E+00 -0.34996269501E-01  0.35000000000E-01  0.51099999109E-03 0. -1.
       22    1    1    2    0    0 -0.61032139945E-06  0.10688256408E-06  0.36316555689E-04  0.36321840994E-04  0.00000000000E+00 0. -1.
       22    1    1    2    0    0 -0.40985571247E-02 -0.46604122443E-02  0.34408712619E-01  0.34963940237E-01  0.00000000000E+00 0.  1.
       22    1    1    2    0    0  0.40991674461E-02  0.46603053617E-02 -0.34445029174E-01  0.34999737922E-01  0.00000000000E+00 0. -1.
</event>
<event>
 5   0  0.1792268E+06  0.9118800E+02  0.7546771E-02  0.1180000E+00
      -11   -1    0    0    0    0  0.00000000000E+00  0.00000000000E+00  0.34996269501E-01  0.35000000000E-01  0.51099999109E-03 0.  1.
       11   -1    0    0    0    0 -0.00000000000E+00 -0.00000000000E+00 -0.34996269501E-01  0.35000000000E-01  0.51099999109E-03 0. -1.
       22    1    1    2    0    0 -0.39069582911E-02 -0.56528811272E-02 -0.34187761270E-01  0.34871512855E-01  0.00000000000E+00 0. -1.
       22    1    1    2    0    0 -0.16399640830E-03 -0.27472682831E-05 -0.63253196926E-04  0.17579344794E-03  0.00000000000E+00 0.  1.
       22    1    1    2    0    0  0.40709546994E-02  0.56556283955E-02  0.34251014467E-01  0.34952693697E-01  0.00000000000E+00 0.  1.
</event>
<event>
 5   0  0.1792268E+06  0.9118800E+02  0.7546771E-02  0.1180000E+00
      -11   -1    0    0    0    0  0.00000000000E+00  0.00000000000E+00  0.34996269501E-01  0.35000000000E-01  0.51099999109E-03 0.  1.
       11   -1    0    0    0    0 -0.00000000000E+00 -0.00000000000E+00 -0.34996269501E-01  0.35000000000E-01  0.51099999109E-03 0.  1.
       22    1    1    2    0    0 -0.81579944725E-03 -0.11494263421E-03 -0.51325175160E-02  0.51982185986E-02  0.00000000000E+00 0. -1.
       22    1    1    2    0    0 -0.89858253576E-03  0.56692714608E-03  0.34932725244E-01  0.34948879094E-01  0.00000000000E+00 0.  1.
       22    1    1    2    0    0  0.17143819830E-02 -0.45198451186E-03 -0.29800207728E-01  0.29852902308E-01  0.00000000000E+00 0.  1.
</event>
<event>
 5   0  0.1792268E+06  0.9118800E+02  0.7546771E-02  0.1180000E+00
      -11   -1    0    0    0    0  0.00000000000E+00  0.00000000000E+00  0.34996269501E-01  0.35000000000E-01  0.51099999109E-03 0.  1.
       11   -1    0    0    0    0 -0.00000000000E+00 -0.00000000000E+00 -0.34996269501E-01  0.35000000000E-01  0.51099999109E-03 0. -1.
       22    1    1    2    0    0 -0.13474231596E-01  0.80152685390E-02 -0.30959732094E-01  0.34703090038E-01  0.00000000000E+00 0. -1.
       22    1    1    2    0    0  0.31450099080E-02 -0.30700392096E-02  0.15154073091E-01  0.15778534765E-01  0.00000000000E+00 0.  1.
       22    1    1    2    0    0  0.10329221688E-01 -0.49452293294E-02  0.15805659003E-01  0.19518375197E-01  0.00000000000E+00 0.  1.
</event>
<event>
 5   0  0.1792268E+06  0.9118800E+02  0.7546771E-02  0.1180000E+00
      -11   -1    0    0    0    0  0.00000000000E+00  0.00000000000E+00  0.34996269501E-01  0.35000000000E-01  0.51099999109E-03 0.  1.
       11   -1    0    0    0    0 -0.00000000000E+00 -0.00000000000E+00 -0.34996269501E-01  0.35000000000E-01  0.51099999109E-03 0. -1.
       22    1    1    2    0    0  0.77516229409E-03  0.42075054608E-02 -0.34732213634E-01  0.34994723069E-01  0.00000000000E+00 0. -1.
       22    1    1    2    0    0 -0.79598932487E-03 -0.41890902765E-02  0.34706334548E-01  0.34967295207E-01  0.00000000000E+00 0.  1.
       22    1    1    2    0    0  0.20827030780E-04 -0.18415184266E-04  0.25879085680E-04  0.37981723214E-04  0.00000000000E+00 0. -1.
</event>
<event>
 5   0  0.1792268E+06  0.9118800E+02  0.7546771E-02  0.1180000E+00
      -11   -1    0    0    0    0  0.00000000000E+00  0.00000000000E+00  0.34996269501E-01  0.35000000000E-01  0.51099999109E-03 0. -1.
       11   -1    0    0    0    0 -0.00000000000E+00 -0.00000000000E+00 -0.34996269501E-01  0.35000000000E-01  0.51099999109E-03 0.  1.
       22    1    1    2    0    0 -0.89884959438E-07  0.69321415371E-06  0.26022148662E-05  0.26944660656E-05  0.00000000000E+00 0.  1.
       22    1    1    2    0    0 -0.11022203234E-02  0.27851452978E-01 -0.21166554829E-01  0.34999162361E-01  0.00000000000E+00 0.  1.
       22    1    1    2    0    0  0.11023102083E-02 -0.27852146192E-01  0.21163952614E-01  0.34998143173E-01  0.00000000000E+00 0. -1.
</event>
<event>
 5   0  0.1792268E+06  0.9118800E+02  0.7546771E-02  0.1180000E+00
      -11   -1    0    0    0    0  0.00000000000E+00  0.00000000000E+00  0.34996269501E-01  0.35000000000E-01  0.51099999109E-03 0.  1.
       11   -1    0    0    0    0 -0.00000000000E+00 -0.00000000000E+00 -0.34996269501E-01  0.35000000000E-01  0.51099999109E-03 0. -1.
       22    1    1    2    0    0  0.35322520601E-02 -0.37666290811E-05 -0.34819856772E-01  0.34998560605E-01  0.00000000000E+00 0. -1.
       22    1    1    2    0    0 -0.35317951150E-02  0.83626471535E-05  0.34817651459E-01  0.34996321233E-01  0.00000000000E+00 0.  1.
       22    1    1    2    0    0 -0.45694511269E-06 -0.45960180724E-05  0.22053127219E-05  0.51181622834E-05  0.00000000000E+00 0.  1.
</event>
<event>
 5   0  0.1792268E+06  0.9118800E+02  0.7546771E-02  0.1180000E+00
      -11   -1    0    0    0    0  0.00000000000E+00  0.00000000000E+00  0.34996269501E-01  0.35000000000E-01  0.51099999109E-03 0. -1.
       11   -1    0    0    0    0 -0.00000000000E+00 -0.00000000000E+00 -0.34996269501E-01  0.35000000000E-01  0.51099999109E-03 0.  1.
       22    1    1    2    0    0  0.59006606999E-05 -0.38401053419E-05  0.37851528697E-04  0.38500680909E-04  0.00000000000E+00 0. -1.
       22    1    1    2    0    0 -0.23632178037E-01 -0.40933655376E-02 -0.25485392967E-01  0.34996296016E-01  0.00000000000E+00 0.  1.
       22    1    1    2    0    0  0.23626277376E-01  0.40972056430E-02  0.25447541438E-01  0.34965203303E-01  0.00000000000E+00 0. -1.
</event>
<event>
 5   0  0.1792268E+06  0.9118800E+02  0.7546771E-02  0.1180000E+00
      -11   -1    0    0    0    0  0.00000000000E+00  0.00000000000E+00  0.34996269501E-01  0.35000000000E-01  0.51099999109E-03 0.  1.
       11   -1    0    0    0    0 -0.00000000000E+00 -0.00000000000E+00 -0.34996269501E-01  0.35000000000E-01  0.51099999109E-03 0. -1.
       22    1    1    2    0    0 -0.12472390611E-02 -0.21957812752E-02  0.33945749986E-01  0.34039550567E-01  0.00000000000E+00 0.  1.
       22    1    1    2    0    0  0.13078129941E-02  0.22242122020E-02 -0.34904314431E-01  0.34999552292E-01  0.00000000000E+00 0. -1.
       22    1    1    2    0    0 -0.60573933047E-04 -0.28430926769E-04  0.95856444572E-03  0.96089714099E-03  0.00000000000E+00 0. -1.
</event>
<event>
 5   0  0.1792268E+06  0.9118800E+02  0.7546771E-02  0.1180000E+00
      -11   -1    0    0    0    0  0.00000000000E+00  0.00000000000E+00  0.34996269501E-01  0.35000000000E-01  0.51099999109E-03 0. -1.
       11   -1    0    0    0    0 -0.00000000000E+00 -0.00000000000E+00 -0.34996269501E-01  0.35000000000E-01  0.51099999109E-03 0.  1.
       22    1    1    2    0    0 -0.49202309919E-02 -0.36039852186E-02 -0.34206702230E-01  0.34746163240E-01  0.00000000000E+00 0.  1.
       22    1    1    2    0    0  0.61013756582E-02  0.37311660316E-02  0.31434662945E-01  0.32237965497E-01  0.00000000000E+00 0. -1.
       22    1    1    2    0    0 -0.11811446663E-02 -0.12718081303E-03  0.27720392846E-02  0.30158712634E-02  0.00000000000E+00 0. -1.
</event>
<event>
 5   0  0.1792268E+06  0.9118800E+02  0.7546771E-02  0.1180000E+00
      -11   -1    0    0    0    0  0.00000000000E+00  0.00000000000E+00  0.34996269501E-01  0.35000000000E-01  0.51099999109E-03 0.  1.
       11   -1    0    0    0    0 -0.00000000000E+00 -0.00000000000E+00 -0.34996269501E-01  0.35000000000E-01  0.51099999109E-03 0.  1.
       22    1    1    2    0    0 -0.10678331990E-03  0.26111907490E-02 -0.34902275549E-01  0.34999979404E-01  0.00000000000E+00 0.  1.
       22    1    1    2    0    0  0.35545336710E-06 -0.21983952001E-06  0.19399113063E-04  0.19403614718E-04  0.00000000000E+00 0.  1.
       22    1    1    2    0    0  0.10642786653E-03 -0.26109709095E-02  0.34882876436E-01  0.34980616981E-01  0.00000000000E+00 0.  1.
</event>
<event>
 5   0  0.1792268E+06  0.9118800E+02  0.7546771E-02  0.1180000E+00
      -11   -1    0    0    0    0  0.00000000000E+00  0.00000000000E+00  0.34996269501E-01  0.35000000000E-01  0.51099999109E-03 0.  1.
       11   -1    0    0    0    0 -0.00000000000E+00 -0.00000000000E+00 -0.34996269501E-01  0.35000000000E-01  0.51099999109E-03 0. -1.
       22    1    1    2    0    0  0.10359956721E-02  0.25154938517E-02 -0.34894109319E-01  0.34999998022E-01  0.00000000000E+00 0. -1.
       22    1    1    2    0    0 -0.10360041553E-02 -0.25154917601E-02  0.34894101272E-01  0.34999990100E-01  0.00000000000E+00 0.  1.
       22    1    1    2    0    0  0.84832718328E-08 -0.20916240162E-08  0.80468386782E-08  0.11878232391E-07  0.00000000000E+00 0.  1.
</event>
<event>
 5   0  0.1792268E+06  0.9118800E+02  0.7546771E-02  0.1180000E+00
      -11   -1    0    0    0    0  0.00000000000E+00  0.00000000000E+00  0.34996269501E-01  0.35000000000E-01  0.51099999109E-03 0. -1.
       11   -1    0    0    0    0 -0.00000000000E+00 -0.00000000000E+00 -0.34996269501E-01  0.35000000000E-01  0.51099999109E-03 0.  1.
       22    1    1    2    0    0 -0.57157060315E-03  0.10554582454E-02  0.34734159670E-01  0.34754892217E-01  0.00000000000E+00 0. -1.
       22    1    1    2    0    0  0.20234497291E-03  0.26029619180E-03  0.12983733900E-03  0.35433787566E-03  0.00000000000E+00 0. -1.
       22    1    1    2    0    0  0.36922563024E-03 -0.13157544372E-02 -0.34863997009E-01  0.34890769907E-01  0.00000000000E+00 0.  1.
</event>
<event>
 5   0  0.1792268E+06  0.9118800E+02  0.7546771E-02  0.1180000E+00
      -11   -1    0    0    0    0  0.00000000000E+00  0.00000000000E+00  0.34996269501E-01  0.35000000000E-01  0.51099999109E-03 0.  1.
       11   -1    0    0    0    0 -0.00000000000E+00 -0.00000000000E+00 -0.34996269501E-01  0.35000000000E-01  0.51099999109E-03 0. -1.
       22    1    1    2    0    0 -0.25238106231E-04 -0.48326851057E-04  0.11894208326E-03  0.13084214042E-03  0.00000000000E+00 0. -1.
       22    1    1    2    0    0 -0.14240189912E-02 -0.89900929420E-03 -0.34952274605E-01  0.34992821376E-01  0.00000000000E+00 0. -1.
       22    1    1    2    0    0  0.14492570974E-02  0.94733614526E-03  0.34833332522E-01  0.34876336483E-01  0.00000000000E+00 0.  1.
</event>
<event>
 5   0  0.1792268E+06  0.9118800E+02  0.7546771E-02  0.1180000E+00
      -11   -1    0    0    0    0  0.00000000000E+00  0.00000000000E+00  0.34996269501E-01  0.35000000000E-01  0.51099999109E-03 0. -1.
       11   -1    0    0    0    0 -0.00000000000E+00 -0.00000000000E+00 -0.34996269501E-01  0.35000000000E-01  0.51099999109E-03 0.  1.
       22    1    1    2    0    0  0.19252827464E-04  0.10328885011E-04  0.12615663358E-03  0.12803457903E-03  0.00000000000E+00 0.  1.
       22    1    1    2    0    0  0.83700771558E-02 -0.50598553087E-03  0.33849346602E-01  0.34872517522E-01  0.00000000000E+00 0. -1.
       22    1    1    2    0    0 -0.83893299832E-02  0.49565664586E-03 -0.33975503236E-01  0.34999447899E-01  0.00000000000E+00 0.  1.
</event>
<event>
 5   0  0.1792268E+06  0.9118800E+02  0.7546771E-02  0.1180000E+00
      -11   -1    0    0    0    0  0.00000000000E+00  0.00000000000E+00  0.34996269501E-01  0.35000000000E-01  0.51099999109E-03 0.  1.
       11   -1    0    0    0    0 -0.00000000000E+00 -0.00000000000E+00 -0.34996269501E-01  0.35000000000E-01  0.51099999109E-03 0. -1.
       22    1    1    2    0    0  0.10677302099E-02  0.24992564596E-04 -0.34974442827E-01  0.34990746255E-01  0.00000000000E+00 0. -1.
       22    1    1    2    0    0 -0.52865133514E-04 -0.27346419931E-03  0.21221466363E-02  0.21403466394E-02  0.00000000000E+00 0.  1.
       22    1    1    2    0    0 -0.10148650763E-02  0.24847163471E-03  0.32852296191E-01  0.32868907105E-01  0.00000000000E+00 0.  1.
</event>
<event>
 5   0  0.1792268E+06  0.9118800E+02  0.7546771E-02  0.1180000E+00
      -11   -1    0    0    0    0  0.00000000000E+00  0.00000000000E+00  0.34996269501E-01  0.35000000000E-01  0.51099999109E-03 0.  1.
       11   -1    0    0    0    0 -0.00000000000E+00 -0.00000000000E+00 -0.34996269501E-01  0.35000000000E-01  0.51099999109E-03 0. -1.
       22    1    1    2    0    0  0.28825829974E-05  0.52417632833E-05  0.25368815112E-03  0.25375867154E-03  0.00000000000E+00 0.  1.
       22    1    1    2    0    0  0.54430863061E-02 -0.74453251045E-02  0.33504935572E-01  0.34751126056E-01  0.00000000000E+00 0.  1.
       22    1    1    2    0    0 -0.54459688891E-02  0.74400833412E-02 -0.33758623723E-01  0.34995115273E-01  0.00000000000E+00 0. -1.
</event>
<event>
 5   0  0.1792268E+06  0.9118800E+02  0.7546771E-02  0.1180000E+00
      -11   -1    0    0    0    0  0.00000000000E+00  0.00000000000E+00  0.34996269501E-01  0.35000000000E-01  0.51099999109E-03 0.  1.
       11   -1    0    0    0    0 -0.00000000000E+00 -0.00000000000E+00 -0.34996269501E-01  0.35000000000E-01  0.51099999109E-03 0. -1.
       22    1    1    2    0    0  0.28663761854E-08 -0.60000218415E-08 -0.84819131336E-09  0.67034172657E-08  0.00000000000E+00 0.  1.
       22    1    1    2    0    0  0.22395200361E-02  0.58993517652E-02  0.34426472696E-01  0.34999997479E-01  0.00000000000E+00 0.  1.
       22    1    1    2    0    0 -0.22395229025E-02 -0.58993457652E-02 -0.34426471848E-01  0.34999995817E-01  0.00000000000E+00 0. -1.
</event>
<event>
 5   0  0.1792268E+06  0.9118800E+02  0.7546771E-02  0.1180000E+00
      -11   -1    0    0    0    0  0.00000000000E+00  0.00000000000E+00  0.34996269501E-01  0.35000000000E-01  0.51099999109E-03 0.  1.
       11   -1    0    0    0    0 -0.00000000000E+00 -0.00000000000E+00 -0.34996269501E-01  0.35000000000E-01  0.51099999109E-03 0.  1.
       22    1    1    2    0    0  0.21545539852E-05  0.53698180284E-05  0.48235321017E-04  0.48581099639E-04  0.00000000000E+00 0. -1.
       22    1    1    2    0    0 -0.21547600576E-05 -0.53703316247E-05  0.34954548287E-01  0.34951589990E-01  0.00000000000E+00 0.  1.
       22    1    1    2    0    0  0.20607235378E-09  0.51359633969E-09 -0.35002783608E-01  0.34999828910E-01  0.00000000000E+00 0.  1.
</event>
<event>
 5   0  0.1792268E+06  0.9118800E+02  0.7546771E-02  0.1180000E+00
      -11   -1    0    0    0    0  0.00000000000E+00  0.00000000000E+00  0.34996269501E-01  0.35000000000E-01  0.51099999109E-03 0.  1.
       11   -1    0    0    0    0 -0.00000000000E+00 -0.00000000000E+00 -0.34996269501E-01  0.35000000000E-01  0.51099999109E-03 0.  1.
       22    1    1    2    0    0 -0.10091231792E-03 -0.59302795212E-04 -0.34922592308E-01  0.34922788457E-01  0.00000000000E+00 0.  1.
       22    1    1    2    0    0  0.10091231792E-03  0.59302795212E-04 -0.34708926991E-04  0.12208532688E-03  0.00000000000E+00 0.  1.
       22    1    1    2    0    0 -0.00000000000E+00 -0.00000000000E+00  0.34957301235E-01  0.34955126216E-01  0.00000000000E+00 0.  1.
</event>
<event>
 5   0  0.1792268E+06  0.9118800E+02  0.7546771E-02  0.1180000E+00
      -11   -1    0    0    0    0  0.00000000000E+00  0.00000000000E+00  0.34996269501E-01  0.35000000000E-01  0.51099999109E-03 0.  1.
       11   -1    0    0    0    0 -0.00000000000E+00 -0.00000000000E+00 -0.34996269501E-01  0.35000000000E-01  0.51099999109E-03 0. -1.
       22    1    1    2    0    0  0.73197937228E-02 -0.15359656498E-02  0.34191533773E-01  0.34999993605E-01  0.00000000000E+00 0.  1.
       22    1    1    2    0    0 -0.73197945892E-02  0.15359651258E-02 -0.34191540122E-01  0.34999999966E-01  0.00000000000E+00 0. -1.
       22    1    1    2    0    0  0.86638786801E-09  0.52394976527E-09  0.63488126225E-08  0.64290413757E-08  0.00000000000E+00 0. -1.
</event>
<event>
 5   0  0.1792268E+06  0.9118800E+02  0.7546771E-02  0.1180000E+00
      -11   -1    0    0    0    0  0.00000000000E+00  0.00000000000E+00  0.34996269501E-01  0.35000000000E-01  0.51099999109E-03 0.  1.
       11   -1    0    0    0    0 -0.00000000000E+00 -0.00000000000E+00 -0.34996269501E-01  0.35000000000E-01  0.51099999109E-03 0. -1.
       22    1    1    2    0    0 -0.10946961803E-07 -0.28309762250E-08  0.45885953513E-07  0.47258556145E-07  0.00000000000E+00 0.  1.
       22    1    1    2    0    0  0.28804213527E-01  0.10813747425E-01  0.16684665895E-01  0.34999970376E-01  0.00000000000E+00 0.  1.
       22    1    1    2    0    0 -0.28804202580E-01 -0.10813744594E-01 -0.16684711781E-01  0.34999982366E-01  0.00000000000E+00 0. -1.
</event>
<event>
 5   0  0.1792268E+06  0.9118800E+02  0.7546771E-02  0.1180000E+00
      -11   -1    0    0    0    0  0.00000000000E+00  0.00000000000E+00  0.34996269501E-01  0.35000000000E-01  0.51099999109E-03 0. -1.
       11   -1    0    0    0    0 -0.00000000000E+00 -0.00000000000E+00 -0.34996269501E-01  0.35000000000E-01  0.51099999109E-03 0. -1.
       22    1    1    2    0    0 -0.59080397918E-04  0.15723766210E-03  0.34950294338E-01  0.34950697969E-01  0.00000000000E+00 0. -1.
       22    1    1    2    0    0  0.66323699321E-03  0.10014009197E-02 -0.11480673498E-01  0.11543333621E-01  0.00000000000E+00 0. -1.
       22    1    1    2    0    0 -0.60415659530E-03 -0.11586385818E-02 -0.23469620840E-01  0.23505968411E-01  0.00000000000E+00 0. -1.
</event>
<event>
 5   0  0.1792268E+06  0.9118800E+02  0.7546771E-02  0.1180000E+00
      -11   -1    0    0    0    0  0.00000000000E+00  0.00000000000E+00  0.34996269501E-01  0.35000000000E-01  0.51099999109E-03 0. -1.
       11   -1    0    0    0    0 -0.00000000000E+00 -0.00000000000E+00 -0.34996269501E-01  0.35000000000E-01  0.51099999109E-03 0. -1.
       22    1    1    2    0    0 -0.62126336166E-03 -0.41943237023E-03  0.34983753030E-01  0.34991782861E-01  0.00000000000E+00 0. -1.
       22    1    1    2    0    0  0.72207030300E-03  0.33524300122E-03 -0.34426203345E-01  0.34435406926E-01  0.00000000000E+00 0. -1.
       22    1    1    2    0    0 -0.10080694134E-03  0.84189369014E-04 -0.55754968496E-03  0.57281021332E-03  0.00000000000E+00 0. -1.
</event>
<event>
 5   0  0.1792268E+06  0.9118800E+02  0.7546771E-02  0.1180000E+00
      -11   -1    0    0    0    0  0.00000000000E+00  0.00000000000E+00  0.34996269501E-01  0.35000000000E-01  0.51099999109E-03 0.  1.
       11   -1    0    0    0    0 -0.00000000000E+00 -0.00000000000E+00 -0.34996269501E-01  0.35000000000E-01  0.51099999109E-03 0. -1.
       22    1    1    2    0    0 -0.26724172249E-06 -0.11473289261E-06  0.36958182174E-06  0.47028980198E-06  0.00000000000E+00 0.  1.
       22    1    1    2    0    0 -0.23874264082E-02  0.23989138234E-02 -0.34835921968E-01  0.34999943597E-01  0.00000000000E+00 0. -1.
       22    1    1    2    0    0  0.23876936499E-02 -0.23987990905E-02  0.34835552387E-01  0.34999586114E-01  0.00000000000E+00 0.  1.
</event>
<event>
 5   0  0.1792268E+06  0.9118800E+02  0.7546771E-02  0.1180000E+00
      -11   -1    0    0    0    0  0.00000000000E+00  0.00000000000E+00  0.34996269501E-01  0.35000000000E-01  0.51099999109E-03 0. -1.
       11   -1    0    0    0    0 -0.00000000000E+00 -0.00000000000E+00 -0.34996269501E-01  0.35000000000E-01  0.51099999109E-03 0.  1.
       22    1    1    2    0    0 -0.30577775445E-02  0.10498066734E-02  0.34625051270E-01  0.34775656328E-01  0.00000000000E+00 0. -1.
       22    1    1    2    0    0  0.37089861303E-05  0.35951579630E-04  0.22298187957E-03  0.22589199028E-03  0.00000000000E+00 0. -1.
       22    1    1    2    0    0  0.30540685584E-02 -0.10857582531E-02 -0.34848033150E-01  0.34998451682E-01  0.00000000000E+00 0.  1.
</event>
<event>
 5   0  0.1792268E+06  0.9118800E+02  0.7546771E-02  0.1180000E+00
      -11   -1    0    0    0    0  0.00000000000E+00  0.00000000000E+00  0.34996269501E-01  0.35000000000E-01  0.51099999109E-03 0.  1.
       11   -1    0    0    0    0 -0.00000000000E+00 -0.00000000000E+00 -0.34996269501E-01  0.35000000000E-01  0.51099999109E-03 0. -1.
       22    1    1    2    0    0  0.16862845795E-04  0.59647872553E-03 -0.15045913890E-02  0.16186001586E-02  0.00000000000E+00 0.  1.
       22    1    1    2    0    0 -0.13336555632E-01  0.13136696135E-01  0.29221142846E-01  0.34703194243E-01  0.00000000000E+00 0.  1.
       22    1    1    2    0    0  0.13319692786E-01 -0.13733174860E-01 -0.27716551457E-01  0.33678205598E-01  0.00000000000E+00 0. -1.
</event>
<event>
 5   0  0.1792268E+06  0.9118800E+02  0.7546771E-02  0.1180000E+00
      -11   -1    0    0    0    0  0.00000000000E+00  0.00000000000E+00  0.34996269501E-01  0.35000000000E-01  0.51099999109E-03 0.  1.
       11   -1    0    0    0    0 -0.00000000000E+00 -0.00000000000E+00 -0.34996269501E-01  0.35000000000E-01  0.51099999109E-03 0. -1.
       22    1    1    2    0    0 -0.15212335926E-05 -0.40033360374E-06  0.16030509644E-04  0.16107503161E-04  0.00000000000E+00 0.  1.
       22    1    1    2    0    0  0.20782756960E-01 -0.23344598717E-02  0.28047185043E-01  0.34985958306E-01  0.00000000000E+00 0.  1.
       22    1    1    2    0    0 -0.20781235727E-01  0.23348602053E-02 -0.28063215552E-01  0.34997934191E-01  0.00000000000E+00 0. -1.
</event>
<event>
 5   0  0.1792268E+06  0.9118800E+02  0.7546771E-02  0.1180000E+00
      -11   -1    0    0    0    0  0.00000000000E+00  0.00000000000E+00  0.34996269501E-01  0.35000000000E-01  0.51099999109E-03 0. -1.
       11   -1    0    0    0    0 -0.00000000000E+00 -0.00000000000E+00 -0.34996269501E-01  0.35000000000E-01  0.51099999109E-03 0.  1.
       22    1    1    2    0    0 -0.13436930353E-02 -0.79411196381E-03  0.42877451318E-02  0.45629905872E-02  0.00000000000E+00 0. -1.
       22    1    1    2    0    0  0.12699897990E-02 -0.21397197004E-03  0.30553737247E-01  0.30580868494E-01  0.00000000000E+00 0. -1.
       22    1    1    2    0    0  0.73703236369E-04  0.10080839338E-02 -0.34841482379E-01  0.34856140919E-01  0.00000000000E+00 0.  1.
</event>
<event>
 5   0  0.1792268E+06  0.9118800E+02  0.7546771E-02  0.1180000E+00
      -11   -1    0    0    0    0  0.00000000000E+00  0.00000000000E+00  0.34996269501E-01  0.35000000000E-01  0.51099999109E-03 0.  1.
       11   -1    0    0    0    0 -0.00000000000E+00 -0.00000000000E+00 -0.34996269501E-01  0.35000000000E-01  0.51099999109E-03 0. -1.
       22    1    1    2    0    0 -0.34533960611E-02 -0.16970377083E-02  0.97559477173E-03  0.39695927369E-02  0.00000000000E+00 0.  1.
       22    1    1    2    0    0  0.80463442580E-02  0.31626716605E-03  0.31852099782E-01  0.32854222580E-01  0.00000000000E+00 0.  1.
       22    1    1    2    0    0 -0.45929481969E-02  0.13807705422E-02 -0.32827694553E-01  0.33176184683E-01  0.00000000000E+00 0. -1.
</event>
<event>
 5   0  0.1792268E+06  0.9118800E+02  0.7546771E-02  0.1180000E+00
      -11   -1    0    0    0    0  0.00000000000E+00  0.00000000000E+00  0.34996269501E-01  0.35000000000E-01  0.51099999109E-03 0.  1.
       11   -1    0    0    0    0 -0.00000000000E+00 -0.00000000000E+00 -0.34996269501E-01  0.35000000000E-01  0.51099999109E-03 0. -1.
       22    1    1    2    0    0  0.52431996274E-02  0.33631620864E-02 -0.34395029656E-01  0.34954542860E-01  0.00000000000E+00 0. -1.
       22    1    1    2    0    0  0.53534336764E-04 -0.12434475698E-03  0.50831122267E-04  0.14460756132E-03  0.00000000000E+00 0.  1.
       22    1    1    2    0    0 -0.52967339642E-02 -0.32388173294E-02  0.34344198534E-01  0.34900849578E-01  0.00000000000E+00 0.  1.
</event>
<event>
 5   0  0.1792268E+06  0.9118800E+02  0.7546771E-02  0.1180000E+00
      -11   -1    0    0    0    0  0.00000000000E+00  0.00000000000E+00  0.34996269501E-01  0.35000000000E-01  0.51099999109E-03 0. -1.
       11   -1    0    0    0    0 -0.00000000000E+00 -0.00000000000E+00 -0.34996269501E-01  0.35000000000E-01  0.51099999109E-03 0.  1.
       22    1    1    2    0    0  0.49054573801E-08  0.83403197829E-09  0.10591945058E-07  0.11702496382E-07  0.00000000000E+00 0.  1.
       22    1    1    2    0    0 -0.22725074389E-01 -0.18416593436E-01  0.19219770911E-01  0.34999993052E-01  0.00000000000E+00 0. -1.
       22    1    1    2    0    0  0.22725069484E-01  0.18416592602E-01 -0.19219781503E-01  0.34999995245E-01  0.00000000000E+00 0.  1.
</event>
<event>
 5   0  0.1792268E+06  0.9118800E+02  0.7546771E-02  0.1180000E+00
      -11   -1    0    0    0    0  0.00000000000E+00  0.00000000000E+00  0.34996269501E-01  0.35000000000E-01  0.51099999109E-03 0.  1.
       11   -1    0    0    0    0 -0.00000000000E+00 -0.00000000000E+00 -0.34996269501E-01  0.35000000000E-01  0.51099999109E-03 0. -1.
       22    1    1    2    0    0 -0.10021625015E-01  0.17607591595E-01  0.25368682651E-01  0.32465832950E-01  0.00000000000E+00 0.  1.
       22    1    1    2    0    0 -0.34401240555E-03 -0.10792403179E-03  0.27816073371E-02  0.28048763805E-02  0.00000000000E+00 0. -1.
       22    1    1    2    0    0  0.10365637420E-01 -0.17499667563E-01 -0.28150289989E-01  0.34729290669E-01  0.00000000000E+00 0. -1.
</event>
<event>
 5   0  0.1792268E+06  0.9118800E+02  0.7546771E-02  0.1180000E+00
      -11   -1    0    0    0    0  0.00000000000E+00  0.00000000000E+00  0.34996269501E-01  0.35000000000E-01  0.51099999109E-03 0.  1.
       11   -1    0    0    0    0 -0.00000000000E+00 -0.00000000000E+00 -0.34996269501E-01  0.35000000000E-01  0.51099999109E-03 0. -1.
       22    1    1    2    0    0 -0.59588146949E-04 -0.40113364440E-03  0.34953097005E-01  0.34955449492E-01  0.00000000000E+00 0.  1.
       22    1    1    2    0    0 -0.49614870126E-04  0.25647456689E-03 -0.34816780374E-01  0.34817760359E-01  0.00000000000E+00 0. -1.
       22    1    1    2    0    0  0.10920301708E-03  0.14465907751E-03 -0.13631663119E-03  0.22679014878E-03  0.00000000000E+00 0.  1.
</event>
<event>
 5   0  0.1792268E+06  0.9118800E+02  0.7546771E-02  0.1180000E+00
      -11   -1    0    0    0    0  0.00000000000E+00  0.00000000000E+00  0.34996269501E-01  0.35000000000E-01  0.51099999109E-03 0. -1.
       11   -1    0    0    0    0 -0.00000000000E+00 -0.00000000000E+00 -0.34996269501E-01  0.35000000000E-01  0.51099999109E-03 0. -1.
       22    1    1    2    0    0  0.13418235786E-02  0.58496438065E-03  0.34969370988E-01  0.34999994017E-01  0.00000000000E+00 0. -1.
       22    1    1    2    0    0 -0.13418198082E-02 -0.58496025762E-03 -0.34969375800E-01  0.34999998610E-01  0.00000000000E+00 0. -1.
       22    1    1    2    0    0 -0.37704006921E-08 -0.41230325606E-08  0.48113381704E-08  0.73732146222E-08  0.00000000000E+00 0.  1.
</event>
<event>
 5   0  0.1792268E+06  0.9118800E+02  0.7546771E-02  0.1180000E+00
      -11   -1    0    0    0    0  0.00000000000E+00  0.00000000000E+00  0.34996269501E-01  0.35000000000E-01  0.51099999109E-03 0. -1.
       11   -1    0    0    0    0 -0.00000000000E+00 -0.00000000000E+00 -0.34996269501E-01  0.35000000000E-01  0.51099999109E-03 0.  1.
       22    1    1    2    0    0  0.65770407348E-03  0.52525138261E-02  0.34511394009E-01  0.34915008129E-01  0.00000000000E+00 0. -1.
       22    1    1    2    0    0 -0.21875836324E-03 -0.29753247145E-03 -0.21009743916E-03  0.42487848498E-03  0.00000000000E+00 0. -1.
       22    1    1    2    0    0 -0.43894571024E-03 -0.49549813547E-02 -0.34301296570E-01  0.34660113386E-01  0.00000000000E+00 0.  1.
</event>
<event>
 5   0  0.1792268E+06  0.9118800E+02  0.7546771E-02  0.1180000E+00
      -11   -1    0    0    0    0  0.00000000000E+00  0.00000000000E+00  0.34996269501E-01  0.35000000000E-01  0.51099999109E-03 0. -1.
       11   -1    0    0    0    0 -0.00000000000E+00 -0.00000000000E+00 -0.34996269501E-01  0.35000000000E-01  0.51099999109E-03 0.  1.
       22    1    1    2    0    0  0.26602164856E-02  0.12823744944E-02 -0.34875187371E-01  0.34999999004E-01  0.00000000000E+00 0.  1.
       22    1    1    2    0    0 -0.26602135375E-02 -0.12823911991E-02  0.34875064573E-01  0.34999877031E-01  0.00000000000E+00 0. -1.
       22    1    1    2    0    0 -0.29480548128E-08  0.16704685682E-07  0.12279862705E-06  0.12396467382E-06  0.00000000000E+00 0. -1.
</event>
<event>
 5   0  0.1792268E+06  0.9118800E+02  0.7546771E-02  0.1180000E+00
      -11   -1    0    0    0    0  0.00000000000E+00  0.00000000000E+00  0.34996269501E-01  0.35000000000E-01  0.51099999109E-03 0.  1.
       11   -1    0    0    0    0 -0.00000000000E+00 -0.00000000000E+00 -0.34996269501E-01  0.35000000000E-01  0.51099999109E-03 0.  1.
       22    1    1    2    0    0 -0.00000000000E+00 -0.00000000000E+00  0.26290770445E-01  0.26287979150E-01  0.00000000000E+00 0.  1.
       22    1    1    2    0    0  0.96164152928E-02  0.12037928762E-01 -0.28617810418E-02  0.15670895402E-01  0.00000000000E+00 0. -1.
       22    1    1    2    0    0 -0.96164152928E-02 -0.12037928762E-01 -0.23428989403E-01  0.28041125449E-01  0.00000000000E+00 0.  1.
</event>
<event>
 5   0  0.1792268E+06  0.9118800E+02  0.7546771E-02  0.1180000E+00
      -11   -1    0    0    0    0  0.00000000000E+00  0.00000000000E+00  0.34996269501E-01  0.35000000000E-01  0.51099999109E-03 0. -1.
       11   -1    0    0    0    0 -0.00000000000E+00 -0.00000000000E+00 -0.34996269501E-01  0.35000000000E-01  0.51099999109E-03 0.  1.
       22    1    1    2    0    0  0.18643217378E-01  0.19868797554E-01 -0.62040789075E-02  0.27943322378E-01  0.00000000000E+00 0.  1.
       22    1    1    2    0    0 -0.66949202257E-02 -0.24469263543E-01  0.11927004119E-01  0.28032485484E-01  0.00000000000E+00 0. -1.
       22    1    1    2    0    0 -0.11948297152E-01  0.46004659887E-02 -0.57229252114E-02  0.14024192138E-01  0.00000000000E+00 0.  1.
</event>
<event>
 5   0  0.1792268E+06  0.9118800E+02  0.7546771E-02  0.1180000E+00
      -11   -1    0    0    0    0  0.00000000000E+00  0.00000000000E+00  0.34996269501E-01  0.35000000000E-01  0.51099999109E-03 0.  1.
       11   -1    0    0    0    0 -0.00000000000E+00 -0.00000000000E+00 -0.34996269501E-01  0.35000000000E-01  0.51099999109E-03 0. -1.
       22    1    1    2    0    0  0.26043162113E-02  0.24571542515E-02 -0.34816346587E-01  0.34999972280E-01  0.00000000000E+00 0. -1.
       22    1    1    2    0    0 -0.39357670613E-05 -0.11806758773E-05  0.50118465956E-04  0.50286627324E-04  0.00000000000E+00 0.  1.
       22    1    1    2    0    0 -0.26003804443E-02 -0.24559735756E-02  0.34766228121E-01  0.34949741092E-01  0.00000000000E+00 0.  1.
</event>
<event>
 5   0  0.1792268E+06  0.9118800E+02  0.7546771E-02  0.1180000E+00
      -11   -1    0    0    0    0  0.00000000000E+00  0.00000000000E+00  0.34996269501E-01  0.35000000000E-01  0.51099999109E-03 0.  1.
       11   -1    0    0    0    0 -0.00000000000E+00 -0.00000000000E+00 -0.34996269501E-01  0.35000000000E-01  0.51099999109E-03 0. -1.
       22    1    1    2    0    0 -0.84706626594E-02 -0.80601295949E-03 -0.33949726270E-01  0.34999795665E-01  0.00000000000E+00 0. -1.
       22    1    1    2    0    0 -0.75261630830E-06 -0.46934659887E-06  0.34696153315E-05  0.35811936677E-05  0.00000000000E+00 0.  1.
       22    1    1    2    0    0  0.84714152757E-02  0.80648230609E-03  0.33946256654E-01  0.34996623142E-01  0.00000000000E+00 0.  1.
</event>
<event>
 5   0  0.1792268E+06  0.9118800E+02  0.7546771E-02  0.1180000E+00
      -11   -1    0    0    0    0  0.00000000000E+00  0.00000000000E+00  0.34996269501E-01  0.35000000000E-01  0.51099999109E-03 0. -1.
       11   -1    0    0    0    0 -0.00000000000E+00 -0.00000000000E+00 -0.34996269501E-01  0.35000000000E-01  0.51099999109E-03 0. -1.
       22    1    1    2    0    0 -0.81608704824E-07  0.23407841166E-09  0.71449244177E-06  0.71913801516E-06  0.00000000000E+00 0.  1.
       22    1    1    2    0    0 -0.51306389810E-04 -0.46331435033E-03  0.34996178778E-01  0.34999283158E-01  0.00000000000E+00 0. -1.
       22    1    1    2    0    0  0.51387998515E-04  0.46331411626E-03 -0.34996893270E-01  0.34999997704E-01  0.00000000000E+00 0. -1.
</event>
<event>
 5   0  0.1792268E+06  0.9118800E+02  0.7546771E-02  0.1180000E+00
      -11   -1    0    0    0    0  0.00000000000E+00  0.00000000000E+00  0.34996269501E-01  0.35000000000E-01  0.51099999109E-03 0.  1.
       11   -1    0    0    0    0 -0.00000000000E+00 -0.00000000000E+00 -0.34996269501E-01  0.35000000000E-01  0.51099999109E-03 0. -1.
       22    1    1    2    0    0  0.10709414150E-01 -0.14830614383E-01 -0.29838891828E-01  0.34999973427E-01  0.00000000000E+00 0. -1.
       22    1    1    2    0    0  0.52971107883E-07 -0.17922046264E-07  0.82080665013E-07  0.99319552867E-07  0.00000000000E+00 0.  1.
       22    1    1    2    0    0 -0.10709467122E-01  0.14830632305E-01  0.29838809747E-01  0.34999927253E-01  0.00000000000E+00 0.  1.
</event>
<event>
 5   0  0.1792268E+06  0.9118800E+02  0.7546771E-02  0.1180000E+00
      -11   -1    0    0    0    0  0.00000000000E+00  0.00000000000E+00  0.34996269501E-01  0.35000000000E-01  0.51099999109E-03 0. -1.
       11   -1    0    0    0    0 -0.00000000000E+00 -0.00000000000E+00 -0.34996269501E-01  0.35000000000E-01  0.51099999109E-03 0.  1.
       22    1    1    2    0    0  0.40527416792E-04  0.30438845659E-04 -0.19810134843E-04  0.54419080105E-04  0.00000000000E+00 0. -1.
       22    1    1    2    0    0 -0.40279247005E-02 -0.25951435211E-03 -0.34731631463E-01  0.34965379294E-01  0.00000000000E+00 0.  1.
       22    1    1    2    0    0  0.39873972837E-02  0.22907550645E-03  0.34751441598E-01  0.34980201626E-01  0.00000000000E+00 0. -1.
</event>
<event>
 5   0  0.1792268E+06  0.9118800E+02  0.7546771E-02  0.1180000E+00
      -11   -1    0    0    0    0  0.00000000000E+00  0.00000000000E+00  0.34996269501E-01  0.35000000000E-01  0.51099999109E-03 0. -1.
       11   -1    0    0    0    0 -0.00000000000E+00 -0.00000000000E+00 -0.34996269501E-01  0.35000000000E-01  0.51099999109E-03 0.  1.
       22    1    1    2    0    0 -0.37266068259E-07  0.11469196004E-06  0.17299199335E-06  0.21087729917E-06  0.00000000000E+00 0.  1.
       22    1    1    2    0    0  0.35027158768E-03 -0.11482993702E-02 -0.34979387267E-01  0.34999983074E-01  0.00000000000E+00 0.  1.
       22    1    1    2    0    0 -0.35023432161E-03  0.11481846783E-02  0.34979214275E-01  0.34999806048E-01  0.00000000000E+00 0. -1.
</event>
<event>
 5   0  0.1792268E+06  0.9118800E+02  0.7546771E-02  0.1180000E+00
      -11   -1    0    0    0    0  0.00000000000E+00  0.00000000000E+00  0.34996269501E-01  0.35000000000E-01  0.51099999109E-03 0. -1.
       11   -1    0    0    0    0 -0.00000000000E+00 -0.00000000000E+00 -0.34996269501E-01  0.35000000000E-01  0.51099999109E-03 0.  1.
       22    1    1    2    0    0 -0.23629072277E-03  0.11357469142E-02  0.34980231604E-01  0.34999462245E-01  0.00000000000E+00 0. -1.
       22    1    1    2    0    0  0.68767525882E-07  0.68122877853E-07  0.53266629849E-06  0.54138995618E-06  0.00000000000E+00 0.  1.
       22    1    1    2    0    0  0.23622195525E-03 -0.11358150371E-02 -0.34980764270E-01  0.34999996365E-01  0.00000000000E+00 0.  1.
</event>
<event>
 5   0  0.1792268E+06  0.9118800E+02  0.7546771E-02  0.1180000E+00
      -11   -1    0    0    0    0  0.00000000000E+00  0.00000000000E+00  0.34996269501E-01  0.35000000000E-01  0.51099999109E-03 0. -1.
       11   -1    0    0    0    0 -0.00000000000E+00 -0.00000000000E+00 -0.34996269501E-01  0.35000000000E-01  0.51099999109E-03 0.  1.
       22    1    1    2    0    0 -0.88363625678E-02  0.29502946104E-02 -0.21044621287E-01  0.23014378698E-01  0.00000000000E+00 0.  1.
       22    1    1    2    0    0  0.87020924161E-02 -0.34926417071E-02  0.33362448866E-01  0.34655128810E-01  0.00000000000E+00 0. -1.
       22    1    1    2    0    0  0.13427015171E-03  0.54234709676E-03 -0.12317827579E-01  0.12330492492E-01  0.00000000000E+00 0.  1.
</event>
<event>
 5   0  0.1792268E+06  0.9118800E+02  0.7546771E-02  0.1180000E+00
      -11   -1    0    0    0    0  0.00000000000E+00  0.00000000000E+00  0.34996269501E-01  0.35000000000E-01  0.51099999109E-03 0. -1.
       11   -1    0    0    0    0 -0.00000000000E+00 -0.00000000000E+00 -0.34996269501E-01  0.35000000000E-01  0.51099999109E-03 0.  1.
       22    1    1    2    0    0  0.17230891644E-03 -0.74258873666E-03  0.80825617285E-03  0.11110384491E-02  0.00000000000E+00 0.  1.
       22    1    1    2    0    0  0.13472792054E-01 -0.17549107545E-02  0.31185911600E-01  0.34017009272E-01  0.00000000000E+00 0. -1.
       22    1    1    2    0    0 -0.13645100971E-01  0.24974994912E-02 -0.31994167773E-01  0.34871952278E-01  0.00000000000E+00 0.  1.
</event>
<event>
 5   0  0.1792268E+06  0.9118800E+02  0.7546771E-02  0.1180000E+00
      -11   -1    0    0    0    0  0.00000000000E+00  0.00000000000E+00  0.34996269501E-01  0.35000000000E-01  0.51099999109E-03 0.  1.
       11   -1    0    0    0    0 -0.00000000000E+00 -0.00000000000E+00 -0.34996269501E-01  0.35000000000E-01  0.51099999109E-03 0.  1.
       22    1    1    2    0    0 -0.17298596097E-07 -0.48670911452E-08  0.11090242136E-07  0.21116900194E-07  0.00000000000E+00 0.  1.
       22    1    1    2    0    0 -0.15794148853E-11 -0.44438035085E-12 -0.35002655031E-01  0.34999994987E-01  0.00000000000E+00 0.  1.
       22    1    1    2    0    0  0.17300175512E-07  0.48675355256E-08  0.35002643941E-01  0.34999983896E-01  0.00000000000E+00 0.  1.
</event>
<event>
 5   0  0.1792268E+06  0.9118800E+02  0.7546771E-02  0.1180000E+00
      -11   -1    0    0    0    0  0.00000000000E+00  0.00000000000E+00  0.34996269501E-01  0.35000000000E-01  0.51099999109E-03 0.  1.
       11   -1    0    0    0    0 -0.00000000000E+00 -0.00000000000E+00 -0.34996269501E-01  0.35000000000E-01  0.51099999109E-03 0. -1.
       22    1    1    2    0    0 -0.10291238345E-01  0.29107758058E-02  0.33301951263E-01  0.34977166272E-01  0.00000000000E+00 0.  1.
       22    1    1    2    0    0  0.10196476246E-01 -0.30241430667E-02 -0.33134321002E-01  0.34799379268E-01  0.00000000000E+00 0. -1.
       22    1    1    2    0    0  0.94762099808E-04  0.11336726095E-03 -0.16763026104E-03  0.22345446031E-03  0.00000000000E+00 0.  1.
</event>
<event>
 5   0  0.1792268E+06  0.9118800E+02  0.7546771E-02  0.1180000E+00
      -11   -1    0    0    0    0  0.00000000000E+00  0.00000000000E+00  0.34996269501E-01  0.35000000000E-01  0.51099999109E-03 0.  1.
       11   -1    0    0    0    0 -0.00000000000E+00 -0.00000000000E+00 -0.34996269501E-01  0.35000000000E-01  0.51099999109E-03 0. -1.
       22    1    1    2    0    0  0.11329923846E-01  0.54950930595E-03 -0.33110835750E-01  0.34999951127E-01  0.00000000000E+00 0. -1.
       22    1    1    2    0    0  0.32883844156E-08  0.72576973362E-07  0.17419817073E-05  0.17434960565E-05  0.00000000000E+00 0.  1.
       22    1    1    2    0    0 -0.11329927135E-01 -0.54958188293E-03  0.33109093768E-01  0.34998305377E-01  0.00000000000E+00 0.  1.
</event>
<event>
 5   0  0.1792268E+06  0.9118800E+02  0.7546771E-02  0.1180000E+00
      -11   -1    0    0    0    0  0.00000000000E+00  0.00000000000E+00  0.34996269501E-01  0.35000000000E-01  0.51099999109E-03 0.  1.
       11   -1    0    0    0    0 -0.00000000000E+00 -0.00000000000E+00 -0.34996269501E-01  0.35000000000E-01  0.51099999109E-03 0. -1.
       22    1    1    2    0    0 -0.91100991361E-05  0.97678759568E-05 -0.28363625212E-04  0.31351244666E-04  0.00000000000E+00 0. -1.
       22    1    1    2    0    0 -0.32170840713E-01 -0.13096701073E-01  0.41676067277E-02  0.34983646422E-01  0.00000000000E+00 0. -1.
       22    1    1    2    0    0  0.32179950812E-01  0.13086933197E-01 -0.41392431025E-02  0.34985002333E-01  0.00000000000E+00 0.  1.
</event>
<event>
 5   0  0.1792268E+06  0.9118800E+02  0.7546771E-02  0.1180000E+00
      -11   -1    0    0    0    0  0.00000000000E+00  0.00000000000E+00  0.34996269501E-01  0.35000000000E-01  0.51099999109E-03 0. -1.
       11   -1    0    0    0    0 -0.00000000000E+00 -0.00000000000E+00 -0.34996269501E-01  0.35000000000E-01  0.51099999109E-03 0.  1.
       22    1    1    2    0    0 -0.74084764713E-02  0.26437233275E-01 -0.21706475907E-01  0.34999770330E-01  0.00000000000E+00 0.  1.
       22    1    1    2    0    0 -0.28414195113E-07  0.51673626688E-07  0.10865476002E-05  0.10881466894E-05  0.00000000000E+00 0. -1.
       22    1    1    2    0    0  0.74085048855E-02 -0.26437284948E-01  0.21705389360E-01  0.34999141523E-01  0.00000000000E+00 0. -1.
</event>
<event>
 5   0  0.1792268E+06  0.9118800E+02  0.7546771E-02  0.1180000E+00
      -11   -1    0    0    0    0  0.00000000000E+00  0.00000000000E+00  0.34996269501E-01  0.35000000000E-01  0.51099999109E-03 0.  1.
       11   -1    0    0    0    0 -0.00000000000E+00 -0.00000000000E+00 -0.34996269501E-01  0.35000000000E-01  0.51099999109E-03 0. -1.
       22    1    1    2    0    0  0.76432028267E-03 -0.61202854681E-02  0.34441625800E-01  0.34989536543E-01  0.00000000000E+00 0.  1.
       22    1    1    2    0    0 -0.79913128795E-03  0.61168952912E-02 -0.34421907838E-01  0.34970312524E-01  0.00000000000E+00 0. -1.
       22    1    1    2    0    0  0.34811005280E-04  0.33901769319E-05 -0.19717962465E-04  0.40150933142E-04  0.00000000000E+00 0.  1.
</event>
<event>
 5   0  0.1792268E+06  0.9118800E+02  0.7546771E-02  0.1180000E+00
      -11   -1    0    0    0    0  0.00000000000E+00  0.00000000000E+00  0.34996269501E-01  0.35000000000E-01  0.51099999109E-03 0. -1.
       11   -1    0    0    0    0 -0.00000000000E+00 -0.00000000000E+00 -0.34996269501E-01  0.35000000000E-01  0.51099999109E-03 0.  1.
       22    1    1    2    0    0  0.63385913106E-03  0.10122707516E-01 -0.33191026793E-01  0.34706126901E-01  0.00000000000E+00 0.  1.
       22    1    1    2    0    0 -0.25263006613E-03 -0.86346624899E-02  0.32465428811E-01  0.33595018770E-01  0.00000000000E+00 0. -1.
       22    1    1    2    0    0 -0.38122906493E-03 -0.14880450265E-02  0.72559798207E-03  0.16988543294E-02  0.00000000000E+00 0.  1.
</event>
<event>
 5   0  0.1792268E+06  0.9118800E+02  0.7546771E-02  0.1180000E+00
      -11   -1    0    0    0    0  0.00000000000E+00  0.00000000000E+00  0.34996269501E-01  0.35000000000E-01  0.51099999109E-03 0. -1.
       11   -1    0    0    0    0 -0.00000000000E+00 -0.00000000000E+00 -0.34996269501E-01  0.35000000000E-01  0.51099999109E-03 0.  1.
       22    1    1    2    0    0 -0.13645882763E-01 -0.77064502879E-02  0.17876048737E-02  0.15773237575E-01  0.00000000000E+00 0. -1.
       22    1    1    2    0    0 -0.12696702576E-02  0.10154174580E-03  0.23698836588E-01  0.23733040870E-01  0.00000000000E+00 0. -1.
       22    1    1    2    0    0  0.14915553021E-01  0.76049085421E-02 -0.25486441462E-01  0.30493721555E-01  0.00000000000E+00 0.  1.
</event>
<event>
 5   0  0.1792268E+06  0.9118800E+02  0.7546771E-02  0.1180000E+00
      -11   -1    0    0    0    0  0.00000000000E+00  0.00000000000E+00  0.34996269501E-01  0.35000000000E-01  0.51099999109E-03 0.  1.
       11   -1    0    0    0    0 -0.00000000000E+00 -0.00000000000E+00 -0.34996269501E-01  0.35000000000E-01  0.51099999109E-03 0. -1.
       22    1    1    2    0    0 -0.21764191357E-03  0.42558573558E-05 -0.69243659840E-04  0.22843116970E-03  0.00000000000E+00 0. -1.
       22    1    1    2    0    0  0.47568558552E-02  0.19508770066E-02 -0.34484747335E-01  0.34865905946E-01  0.00000000000E+00 0. -1.
       22    1    1    2    0    0 -0.45392139416E-02 -0.19551328639E-02  0.34553990994E-01  0.34905662884E-01  0.00000000000E+00 0.  1.
</event>
<event>
 5   0  0.1792268E+06  0.9118800E+02  0.7546771E-02  0.1180000E+00
      -11   -1    0    0    0    0  0.00000000000E+00  0.00000000000E+00  0.34996269501E-01  0.35000000000E-01  0.51099999109E-03 0.  1.
       11   -1    0    0    0    0 -0.00000000000E+00 -0.00000000000E+00 -0.34996269501E-01  0.35000000000E-01  0.51099999109E-03 0. -1.
       22    1    1    2    0    0  0.16530848434E-01 -0.32302953162E-02  0.30592272122E-01  0.34922641243E-01  0.00000000000E+00 0.  1.
       22    1    1    2    0    0 -0.16475317551E-01  0.31951342306E-02 -0.29166760313E-01  0.33650332514E-01  0.00000000000E+00 0. -1.
       22    1    1    2    0    0 -0.55530883516E-04  0.35161085547E-04 -0.14255118089E-02  0.14270262430E-02  0.00000000000E+00 0. -1.
</event>
<event>
 5   0  0.1792268E+06  0.9118800E+02  0.7546771E-02  0.1180000E+00
      -11   -1    0    0    0    0  0.00000000000E+00  0.00000000000E+00  0.34996269501E-01  0.35000000000E-01  0.51099999109E-03 0. -1.
       11   -1    0    0    0    0 -0.00000000000E+00 -0.00000000000E+00 -0.34996269501E-01  0.35000000000E-01  0.51099999109E-03 0.  1.
       22    1    1    2    0    0  0.33249464379E-05  0.78433350147E-06  0.17899974879E-04  0.18223049924E-04  0.00000000000E+00 0. -1.
       22    1    1    2    0    0 -0.64368642343E-03  0.19008293264E-02 -0.34942249793E-01  0.34999832928E-01  0.00000000000E+00 0.  1.
       22    1    1    2    0    0  0.64036147699E-03 -0.19016136599E-02  0.34924349819E-01  0.34981944022E-01  0.00000000000E+00 0. -1.
</event>
<event>
 5   0  0.1792268E+06  0.9118800E+02  0.7546771E-02  0.1180000E+00
      -11   -1    0    0    0    0  0.00000000000E+00  0.00000000000E+00  0.34996269501E-01  0.35000000000E-01  0.51099999109E-03 0.  1.
       11   -1    0    0    0    0 -0.00000000000E+00 -0.00000000000E+00 -0.34996269501E-01  0.35000000000E-01  0.51099999109E-03 0. -1.
       22    1    1    2    0    0 -0.36920467755E-03 -0.89018755202E-02  0.28538848364E-01  0.29897250138E-01  0.00000000000E+00 0.  1.
       22    1    1    2    0    0  0.29061262602E-03 -0.16289895018E-03  0.51779142573E-02  0.51886209943E-02  0.00000000000E+00 0.  1.
       22    1    1    2    0    0  0.78592051523E-04  0.90647744704E-02 -0.33716762621E-01  0.34914128868E-01  0.00000000000E+00 0. -1.
</event>
<event>
 5   0  0.1792268E+06  0.9118800E+02  0.7546771E-02  0.1180000E+00
      -11   -1    0    0    0    0  0.00000000000E+00  0.00000000000E+00  0.34996269501E-01  0.35000000000E-01  0.51099999109E-03 0.  1.
       11   -1    0    0    0    0 -0.00000000000E+00 -0.00000000000E+00 -0.34996269501E-01  0.35000000000E-01  0.51099999109E-03 0. -1.
       22    1    1    2    0    0 -0.85692653695E-07  0.78706971851E-07  0.81090146144E-06  0.81920644436E-06  0.00000000000E+00 0.  1.
       22    1    1    2    0    0 -0.25861127743E-02  0.12194187319E-01 -0.32704899987E-01  0.34999952383E-01  0.00000000000E+00 0. -1.
       22    1    1    2    0    0  0.25861984670E-02 -0.12194266026E-01  0.32704089085E-01  0.34999228411E-01  0.00000000000E+00 0.  1.
</event>
<event>
 5   0  0.1792268E+06  0.9118800E+02  0.7546771E-02  0.1180000E+00
      -11   -1    0    0    0    0  0.00000000000E+00  0.00000000000E+00  0.34996269501E-01  0.35000000000E-01  0.51099999109E-03 0. -1.
       11   -1    0    0    0    0 -0.00000000000E+00 -0.00000000000E+00 -0.34996269501E-01  0.35000000000E-01  0.51099999109E-03 0.  1.
       22    1    1    2    0    0  0.78366810376E-02 -0.56331310753E-02  0.33635555258E-01  0.34992803730E-01  0.00000000000E+00 0. -1.
       22    1    1    2    0    0  0.37075416697E-05  0.39576831784E-04 -0.46535631407E-03  0.46705092926E-03  0.00000000000E+00 0.  1.
       22    1    1    2    0    0 -0.78403885793E-02  0.55935542435E-02 -0.33170198944E-01  0.34540145340E-01  0.00000000000E+00 0.  1.
</event>
<event>
 5   0  0.1792268E+06  0.9118800E+02  0.7546771E-02  0.1180000E+00
      -11   -1    0    0    0    0  0.00000000000E+00  0.00000000000E+00  0.34996269501E-01  0.35000000000E-01  0.51099999109E-03 0.  1.
       11   -1    0    0    0    0 -0.00000000000E+00 -0.00000000000E+00 -0.34996269501E-01  0.35000000000E-01  0.51099999109E-03 0. -1.
       22    1    1    2    0    0  0.15636089851E-01 -0.22672328678E-01 -0.21597901890E-01  0.34999873707E-01  0.00000000000E+00 0. -1.
       22    1    1    2    0    0 -0.15635803649E-01  0.22672506585E-01  0.21597643055E-01  0.34999701372E-01  0.00000000000E+00 0.  1.
       22    1    1    2    0    0 -0.28620221529E-06 -0.17790690232E-06  0.25883414344E-06  0.42492080173E-06  0.00000000000E+00 0.  1.
</event>
<event>
 5   0  0.1792268E+06  0.9118800E+02  0.7546771E-02  0.1180000E+00
      -11   -1    0    0    0    0  0.00000000000E+00  0.00000000000E+00  0.34996269501E-01  0.35000000000E-01  0.51099999109E-03 0.  1.
       11   -1    0    0    0    0 -0.00000000000E+00 -0.00000000000E+00 -0.34996269501E-01  0.35000000000E-01  0.51099999109E-03 0. -1.
       22    1    1    2    0    0 -0.45396630919E-02 -0.15801156177E-01  0.30898455840E-01  0.34999995012E-01  0.00000000000E+00 0.  1.
       22    1    1    2    0    0  0.22901747893E-08  0.61399430508E-09  0.53363288051E-08  0.58393745117E-08  0.00000000000E+00 0. -1.
       22    1    1    2    0    0  0.45396608018E-02  0.15801155563E-01 -0.30898461177E-01  0.34999999149E-01  0.00000000000E+00 0. -1.
</event>
<event>
 5   0  0.1792268E+06  0.9118800E+02  0.7546771E-02  0.1180000E+00
      -11   -1    0    0    0    0  0.00000000000E+00  0.00000000000E+00  0.34996269501E-01  0.35000000000E-01  0.51099999109E-03 0. -1.
       11   -1    0    0    0    0 -0.00000000000E+00 -0.00000000000E+00 -0.34996269501E-01  0.35000000000E-01  0.51099999109E-03 0.  1.
       22    1    1    2    0    0 -0.00000000000E+00  0.00000000000E+00  0.18066822702E-01  0.18065216845E-01  0.00000000000E+00 0. -1.
       22    1    1    2    0    0  0.00000000000E+00  0.00000000000E+00  0.16934089781E-01  0.16933942115E-01  0.00000000000E+00 0.  1.
       22    1    1    2    0    0  0.00000000000E+00  0.00000000000E+00 -0.35000912483E-01  0.35000841040E-01  0.00000000000E+00 0.  1.
</event>
<event>
 5   0  0.1792268E+06  0.9118800E+02  0.7546771E-02  0.1180000E+00
      -11   -1    0    0    0    0  0.00000000000E+00  0.00000000000E+00  0.34996269501E-01  0.35000000000E-01  0.51099999109E-03 0.  1.
       11   -1    0    0    0    0 -0.00000000000E+00 -0.00000000000E+00 -0.34996269501E-01  0.35000000000E-01  0.51099999109E-03 0.  1.
       22    1    1    2    0    0 -0.21202417410E-02 -0.55186631260E-02 -0.98422046188E-02  0.11481291717E-01  0.00000000000E+00 0. -1.
       22    1    1    2    0    0  0.24786388648E-02  0.55997054283E-02  0.33904760397E-01  0.34453347140E-01  0.00000000000E+00 0.  1.
       22    1    1    2    0    0 -0.35839712381E-03 -0.81042302355E-04 -0.24062555779E-01  0.24065361143E-01  0.00000000000E+00 0.  1.
</event>
<event>
 5   0  0.1792268E+06  0.9118800E+02  0.7546771E-02  0.1180000E+00
      -11   -1    0    0    0    0  0.00000000000E+00  0.00000000000E+00  0.34996269501E-01  0.35000000000E-01  0.51099999109E-03 0. -1.
       11   -1    0    0    0    0 -0.00000000000E+00 -0.00000000000E+00 -0.34996269501E-01  0.35000000000E-01  0.51099999109E-03 0.  1.
       22    1    1    2    0    0  0.60267870848E-02 -0.68671102117E-02  0.33786357306E-01  0.34999961503E-01  0.00000000000E+00 0. -1.
       22    1    1    2    0    0  0.14739465815E-09  0.43088662767E-08  0.39474063716E-07  0.39708812120E-07  0.00000000000E+00 0.  1.
       22    1    1    2    0    0 -0.60267872321E-02  0.68671059028E-02 -0.33786396780E-01  0.34999998788E-01  0.00000000000E+00 0.  1.
</event>
<event>
 5   0  0.1792268E+06  0.9118800E+02  0.7546771E-02  0.1180000E+00
      -11   -1    0    0    0    0  0.00000000000E+00  0.00000000000E+00  0.34996269501E-01  0.35000000000E-01  0.51099999109E-03 0. -1.
       11   -1    0    0    0    0 -0.00000000000E+00 -0.00000000000E+00 -0.34996269501E-01  0.35000000000E-01  0.51099999109E-03 0.  1.
       22    1    1    2    0    0  0.13501743307E-01  0.31189008866E-01 -0.71848065924E-02  0.34737196089E-01  0.00000000000E+00 0.  1.
       22    1    1    2    0    0 -0.11984661472E-05  0.17030751800E-04 -0.42096785839E-03  0.42131392171E-03  0.00000000000E+00 0.  1.
       22    1    1    2    0    0 -0.13500544841E-01 -0.31206039618E-01  0.76057744507E-02  0.34841489989E-01  0.00000000000E+00 0. -1.
</event>
<event>
 5   0  0.1792268E+06  0.9118800E+02  0.7546771E-02  0.1180000E+00
      -11   -1    0    0    0    0  0.00000000000E+00  0.00000000000E+00  0.34996269501E-01  0.35000000000E-01  0.51099999109E-03 0.  1.
       11   -1    0    0    0    0 -0.00000000000E+00 -0.00000000000E+00 -0.34996269501E-01  0.35000000000E-01  0.51099999109E-03 0.  1.
       22    1    1    2    0    0 -0.37073577180E-03  0.67867106108E-03  0.34990721294E-01  0.34999265937E-01  0.00000000000E+00 0.  1.
       22    1    1    2    0    0  0.18352802468E-06  0.36053564365E-06  0.67569460722E-06  0.78754789595E-06  0.00000000000E+00 0. -1.
       22    1    1    2    0    0  0.37055224378E-03 -0.67903159673E-03 -0.34991396989E-01  0.34999946516E-01  0.00000000000E+00 0.  1.
</event>
<event>
 5   0  0.1792268E+06  0.9118800E+02  0.7546771E-02  0.1180000E+00
      -11   -1    0    0    0    0  0.00000000000E+00  0.00000000000E+00  0.34996269501E-01  0.35000000000E-01  0.51099999109E-03 0. -1.
       11   -1    0    0    0    0 -0.00000000000E+00 -0.00000000000E+00 -0.34996269501E-01  0.35000000000E-01  0.51099999109E-03 0.  1.
       22    1    1    2    0    0 -0.15745308167E-03 -0.49191323968E-03  0.70007498669E-04  0.52122083436E-03  0.00000000000E+00 0.  1.
       22    1    1    2    0    0  0.25415461322E-02 -0.34142755797E-02 -0.34492146661E-01  0.34753775562E-01  0.00000000000E+00 0.  1.
       22    1    1    2    0    0 -0.23840930505E-02  0.39061888194E-02  0.34422139163E-01  0.34725003604E-01  0.00000000000E+00 0. -1.
</event>
<event>
 5   0  0.1792268E+06  0.9118800E+02  0.7546771E-02  0.1180000E+00
      -11   -1    0    0    0    0  0.00000000000E+00  0.00000000000E+00  0.34996269501E-01  0.35000000000E-01  0.51099999109E-03 0. -1.
       11   -1    0    0    0    0 -0.00000000000E+00 -0.00000000000E+00 -0.34996269501E-01  0.35000000000E-01  0.51099999109E-03 0.  1.
       22    1    1    2    0    0  0.36006721688E-03  0.43739506055E-02 -0.34723743762E-01  0.34999992473E-01  0.00000000000E+00 0.  1.
       22    1    1    2    0    0 -0.98716232705E-07  0.63480257660E-08  0.39683064177E-06  0.40897402152E-06  0.00000000000E+00 0.  1.
       22    1    1    2    0    0 -0.35996850065E-03 -0.43739569535E-02  0.34723346931E-01  0.34999598553E-01  0.00000000000E+00 0. -1.
</event>
<event>
 5   0  0.1792268E+06  0.9118800E+02  0.7546771E-02  0.1180000E+00
      -11   -1    0    0    0    0  0.00000000000E+00  0.00000000000E+00  0.34996269501E-01  0.35000000000E-01  0.51099999109E-03 0. -1.
       11   -1    0    0    0    0 -0.00000000000E+00 -0.00000000000E+00 -0.34996269501E-01  0.35000000000E-01  0.51099999109E-03 0.  1.
       22    1    1    2    0    0  0.25636958713E-02  0.66608248111E-03 -0.18568960811E-01  0.18756932265E-01  0.00000000000E+00 0.  1.
       22    1    1    2    0    0 -0.14992974973E-02 -0.17131778019E-02  0.34834664949E-01  0.34908978118E-01  0.00000000000E+00 0. -1.
       22    1    1    2    0    0 -0.10643983740E-02  0.10470953208E-02 -0.16265704138E-01  0.16334089617E-01  0.00000000000E+00 0.  1.
</event>
<event>
 5   0  0.1792268E+06  0.9118800E+02  0.7546771E-02  0.1180000E+00
      -11   -1    0    0    0    0  0.00000000000E+00  0.00000000000E+00  0.34996269501E-01  0.35000000000E-01  0.51099999109E-03 0.  1.
       11   -1    0    0    0    0 -0.00000000000E+00 -0.00000000000E+00 -0.34996269501E-01  0.35000000000E-01  0.51099999109E-03 0. -1.
       22    1    1    2    0    0 -0.15689303032E-03 -0.45121854166E-02  0.34696533187E-01  0.34989053257E-01  0.00000000000E+00 0.  1.
       22    1    1    2    0    0  0.24213422625E-03  0.45033585129E-02 -0.34533756588E-01  0.34826989691E-01  0.00000000000E+00 0. -1.
       22    1    1    2    0    0 -0.85241195933E-04  0.88269036588E-05 -0.16277659859E-03  0.18395705141E-03  0.00000000000E+00 0.  1.
</event>
<event>
 5   0  0.1792268E+06  0.9118800E+02  0.7546771E-02  0.1180000E+00
      -11   -1    0    0    0    0  0.00000000000E+00  0.00000000000E+00  0.34996269501E-01  0.35000000000E-01  0.51099999109E-03 0.  1.
       11   -1    0    0    0    0 -0.00000000000E+00 -0.00000000000E+00 -0.34996269501E-01  0.35000000000E-01  0.51099999109E-03 0.  1.
       22    1    1    2    0    0  0.12639573174E-04  0.41833975996E-04  0.25188037344E-02  0.25191828224E-02  0.00000000000E+00 0.  1.
       22    1    1    2    0    0  0.10346636910E-08  0.34244903225E-08 -0.35001443932E-01  0.34999857274E-01  0.00000000000E+00 0.  1.
       22    1    1    2    0    0 -0.12640607837E-04 -0.41837400486E-04  0.32482640197E-01  0.32480959903E-01  0.00000000000E+00 0.  1.
</event>
<event>
 5   0  0.1792268E+06  0.9118800E+02  0.7546771E-02  0.1180000E+00
      -11   -1    0    0    0    0  0.00000000000E+00  0.00000000000E+00  0.34996269501E-01  0.35000000000E-01  0.51099999109E-03 0. -1.
       11   -1    0    0    0    0 -0.00000000000E+00 -0.00000000000E+00 -0.34996269501E-01  0.35000000000E-01  0.51099999109E-03 0.  1.
       22    1    1    2    0    0 -0.33496085825E-03  0.79431928550E-03  0.34988088417E-01  0.34998706733E-01  0.00000000000E+00 0. -1.
       22    1    1    2    0    0  0.33493674625E-03 -0.79421863611E-03 -0.34989381069E-01  0.34999996478E-01  0.00000000000E+00 0.  1.
       22    1    1    2    0    0  0.24111999409E-07 -0.10064938271E-06  0.12926518345E-05  0.12967885147E-05  0.00000000000E+00 0.  1.
</event>
<event>
 5   0  0.1792268E+06  0.9118800E+02  0.7546771E-02  0.1180000E+00
      -11   -1    0    0    0    0  0.00000000000E+00  0.00000000000E+00  0.34996269501E-01  0.35000000000E-01  0.51099999109E-03 0. -1.
       11   -1    0    0    0    0 -0.00000000000E+00 -0.00000000000E+00 -0.34996269501E-01  0.35000000000E-01  0.51099999109E-03 0.  1.
       22    1    1    2    0    0 -0.66732970324E-04  0.15771350916E-04  0.45076426942E-03  0.45595005365E-03  0.00000000000E+00 0.  1.
       22    1    1    2    0    0 -0.40674636153E-02  0.14314878382E-01  0.31193208212E-01  0.34561195609E-01  0.00000000000E+00 0. -1.
       22    1    1    2    0    0  0.41341965856E-02 -0.14330649733E-01 -0.31643972482E-01  0.34982854337E-01  0.00000000000E+00 0.  1.
</event>
<event>
 5   0  0.1792268E+06  0.9118800E+02  0.7546771E-02  0.1180000E+00
      -11   -1    0    0    0    0  0.00000000000E+00  0.00000000000E+00  0.34996269501E-01  0.35000000000E-01  0.51099999109E-03 0.  1.
       11   -1    0    0    0    0 -0.00000000000E+00 -0.00000000000E+00 -0.34996269501E-01  0.35000000000E-01  0.51099999109E-03 0. -1.
       22    1    1    2    0    0 -0.28649938162E-01  0.60753735604E-02  0.14603118486E-01  0.32725833680E-01  0.00000000000E+00 0.  1.
       22    1    1    2    0    0 -0.10216481329E-03 -0.18853219214E-03 -0.69377709572E-02  0.69410840574E-02  0.00000000000E+00 0. -1.
       22    1    1    2    0    0  0.28752102975E-01 -0.58868413683E-02 -0.76653475284E-02  0.30333082262E-01  0.00000000000E+00 0. -1.
</event>
<event>
 5   0  0.1792268E+06  0.9118800E+02  0.7546771E-02  0.1180000E+00
      -11   -1    0    0    0    0  0.00000000000E+00  0.00000000000E+00  0.34996269501E-01  0.35000000000E-01  0.51099999109E-03 0.  1.
       11   -1    0    0    0    0 -0.00000000000E+00 -0.00000000000E+00 -0.34996269501E-01  0.35000000000E-01  0.51099999109E-03 0. -1.
       22    1    1    2    0    0 -0.82632338212E-04  0.34419817717E-04  0.59897394264E-03  0.60562580125E-03  0.00000000000E+00 0. -1.
       22    1    1    2    0    0 -0.22671716817E-02 -0.49338873666E-03  0.34317532266E-01  0.34395879414E-01  0.00000000000E+00 0.  1.
       22    1    1    2    0    0  0.23498040200E-02  0.45896891894E-03 -0.34916506208E-01  0.34998494785E-01  0.00000000000E+00 0. -1.
</event>
<event>
 5   0  0.1792268E+06  0.9118800E+02  0.7546771E-02  0.1180000E+00
      -11   -1    0    0    0    0  0.00000000000E+00  0.00000000000E+00  0.34996269501E-01  0.35000000000E-01  0.51099999109E-03 0.  1.
       11   -1    0    0    0    0 -0.00000000000E+00 -0.00000000000E+00 -0.34996269501E-01  0.35000000000E-01  0.51099999109E-03 0. -1.
       22    1    1    2    0    0 -0.42621037597E-02 -0.72449854225E-02  0.33935047198E-01  0.34960588819E-01  0.00000000000E+00 0.  1.
       22    1    1    2    0    0  0.13980910557E-03 -0.69770104933E-04 -0.24200519425E-02  0.24250908968E-02  0.00000000000E+00 0. -1.
       22    1    1    2    0    0  0.41222946542E-02  0.73147555274E-02 -0.31514995256E-01  0.32614320284E-01  0.00000000000E+00 0. -1.
</event>
<event>
 5   0  0.1792268E+06  0.9118800E+02  0.7546771E-02  0.1180000E+00
      -11   -1    0    0    0    0  0.00000000000E+00  0.00000000000E+00  0.34996269501E-01  0.35000000000E-01  0.51099999109E-03 0.  1.
       11   -1    0    0    0    0 -0.00000000000E+00 -0.00000000000E+00 -0.34996269501E-01  0.35000000000E-01  0.51099999109E-03 0. -1.
       22    1    1    2    0    0 -0.87854776858E-02  0.11284888139E-01  0.31944738256E-01  0.34999994581E-01  0.00000000000E+00 0.  1.
       22    1    1    2    0    0 -0.88904766445E-09  0.12540098269E-08  0.52219325504E-08  0.54434847255E-08  0.00000000000E+00 0. -1.
       22    1    1    2    0    0  0.87854785749E-02 -0.11284889393E-01 -0.31944743478E-01  0.34999999975E-01  0.00000000000E+00 0. -1.
</event>
<event>
 5   0  0.1792268E+06  0.9118800E+02  0.7546771E-02  0.1180000E+00
      -11   -1    0    0    0    0  0.00000000000E+00  0.00000000000E+00  0.34996269501E-01  0.35000000000E-01  0.51099999109E-03 0. -1.
       11   -1    0    0    0    0 -0.00000000000E+00 -0.00000000000E+00 -0.34996269501E-01  0.35000000000E-01  0.51099999109E-03 0.  1.
       22    1    1    2    0    0 -0.31996626616E-01  0.13628250300E-02 -0.14017629057E-01  0.34959052207E-01  0.00000000000E+00 0.  1.
       22    1    1    2    0    0  0.28175995502E-04  0.30815258754E-04  0.16874374516E-03  0.17383301880E-03  0.00000000000E+00 0.  1.
       22    1    1    2    0    0  0.31968450620E-01 -0.13936402888E-02  0.13848885312E-01  0.34867114774E-01  0.00000000000E+00 0. -1.
</event>
<event>
 5   0  0.1792268E+06  0.9118800E+02  0.7546771E-02  0.1180000E+00
      -11   -1    0    0    0    0  0.00000000000E+00  0.00000000000E+00  0.34996269501E-01  0.35000000000E-01  0.51099999109E-03 0. -1.
       11   -1    0    0    0    0 -0.00000000000E+00 -0.00000000000E+00 -0.34996269501E-01  0.35000000000E-01  0.51099999109E-03 0. -1.
       22    1    1    2    0    0  0.64469926924E-03  0.57736473262E-03 -0.34985637530E-01  0.34996340103E-01  0.00000000000E+00 0. -1.
       22    1    1    2    0    0 -0.65388719500E-03 -0.57274608774E-03  0.34981930306E-01  0.34992728595E-01  0.00000000000E+00 0. -1.
       22    1    1    2    0    0  0.91879257651E-05 -0.46186448771E-05  0.37072240002E-05  0.10931302308E-04  0.00000000000E+00 0. -1.
</event>
<event>
 5   0  0.1792268E+06  0.9118800E+02  0.7546771E-02  0.1180000E+00
      -11   -1    0    0    0    0  0.00000000000E+00  0.00000000000E+00  0.34996269501E-01  0.35000000000E-01  0.51099999109E-03 0.  1.
       11   -1    0    0    0    0 -0.00000000000E+00 -0.00000000000E+00 -0.34996269501E-01  0.35000000000E-01  0.51099999109E-03 0. -1.
       22    1    1    2    0    0  0.55808383268E-03 -0.87092340770E-02  0.33894508098E-01  0.34999998499E-01  0.00000000000E+00 0.  1.
       22    1    1    2    0    0 -0.14184603613E-08 -0.12573404475E-08  0.70930638646E-09  0.20238701409E-08  0.00000000000E+00 0. -1.
       22    1    1    2    0    0 -0.55808241422E-03  0.87092353344E-02 -0.33894508807E-01  0.34999999477E-01  0.00000000000E+00 0. -1.
</event>
<event>
 5   0  0.1792268E+06  0.9118800E+02  0.7546771E-02  0.1180000E+00
      -11   -1    0    0    0    0  0.00000000000E+00  0.00000000000E+00  0.34996269501E-01  0.35000000000E-01  0.51099999109E-03 0.  1.
       11   -1    0    0    0    0 -0.00000000000E+00 -0.00000000000E+00 -0.34996269501E-01  0.35000000000E-01  0.51099999109E-03 0. -1.
       22    1    1    2    0    0  0.55687237496E-03  0.72640181520E-04 -0.32963477289E-01  0.32968260774E-01  0.00000000000E+00 0. -1.
       22    1    1    2    0    0 -0.20552293742E-02  0.75929223011E-02  0.96800808821E-02  0.12473187353E-01  0.00000000000E+00 0. -1.
       22    1    1    2    0    0  0.14983569992E-02 -0.76655624826E-02  0.23283396407E-01  0.24558551874E-01  0.00000000000E+00 0.  1.
</event>
<event>
 5   0  0.1792268E+06  0.9118800E+02  0.7546771E-02  0.1180000E+00
      -11   -1    0    0    0    0  0.00000000000E+00  0.00000000000E+00  0.34996269501E-01  0.35000000000E-01  0.51099999109E-03 0.  1.
       11   -1    0    0    0    0 -0.00000000000E+00 -0.00000000000E+00 -0.34996269501E-01  0.35000000000E-01  0.51099999109E-03 0.  1.
       22    1    1    2    0    0  0.33872562493E-07 -0.50550167890E-07  0.35000438144E-01  0.34999971448E-01  0.00000000000E+00 0.  1.
       22    1    1    2    0    0 -0.33870531402E-07  0.50547136764E-07 -0.38649462714E-08  0.60968547155E-07  0.00000000000E+00 0.  1.
       22    1    1    2    0    0 -0.20310909382E-11  0.30311255000E-11 -0.35000434279E-01  0.34999967583E-01  0.00000000000E+00 0.  1.
</event>
<event>
 5   0  0.1792268E+06  0.9118800E+02  0.7546771E-02  0.1180000E+00
      -11   -1    0    0    0    0  0.00000000000E+00  0.00000000000E+00  0.34996269501E-01  0.35000000000E-01  0.51099999109E-03 0. -1.
       11   -1    0    0    0    0 -0.00000000000E+00 -0.00000000000E+00 -0.34996269501E-01  0.35000000000E-01  0.51099999109E-03 0.  1.
       22    1    1    2    0    0 -0.14167169394E-04  0.12426587897E-03 -0.19849630295E-03  0.23461351123E-03  0.00000000000E+00 0. -1.
       22    1    1    2    0    0 -0.91060816055E-02 -0.33725213771E-01 -0.63483266573E-03  0.34938714610E-01  0.00000000000E+00 0. -1.
       22    1    1    2    0    0  0.91202487749E-02  0.33600947892E-01  0.83332896868E-03  0.34826671878E-01  0.00000000000E+00 0.  1.
</event>
<event>
 5   0  0.1792268E+06  0.9118800E+02  0.7546771E-02  0.1180000E+00
      -11   -1    0    0    0    0  0.00000000000E+00  0.00000000000E+00  0.34996269501E-01  0.35000000000E-01  0.51099999109E-03 0. -1.
       11   -1    0    0    0    0 -0.00000000000E+00 -0.00000000000E+00 -0.34996269501E-01  0.35000000000E-01  0.51099999109E-03 0. -1.
       22    1    1    2    0    0  0.29854893944E-06 -0.24098151369E-07  0.77930344394E-06  0.83488085850E-06  0.00000000000E+00 0. -1.
       22    1    1    2    0    0  0.19893902459E-10 -0.16057878942E-11 -0.35000905593E-01  0.34999972221E-01  0.00000000000E+00 0. -1.
       22    1    1    2    0    0 -0.29856883334E-06  0.24099757157E-07  0.35000126290E-01  0.34999192898E-01  0.00000000000E+00 0. -1.
</event>
<event>
 5   0  0.1792268E+06  0.9118800E+02  0.7546771E-02  0.1180000E+00
      -11   -1    0    0    0    0  0.00000000000E+00  0.00000000000E+00  0.34996269501E-01  0.35000000000E-01  0.51099999109E-03 0.  1.
       11   -1    0    0    0    0 -0.00000000000E+00 -0.00000000000E+00 -0.34996269501E-01  0.35000000000E-01  0.51099999109E-03 0.  1.
       22    1    1    2    0    0  0.12288131714E-06  0.14756461082E-05  0.34995190360E-01  0.34993129675E-01  0.00000000000E+00 0.  1.
       22    1    1    2    0    0 -0.10167695353E-10 -0.12210090538E-09 -0.35001980726E-01  0.34999920409E-01  0.00000000000E+00 0.  1.
       22    1    1    2    0    0 -0.12287114944E-06 -0.14755240073E-05  0.67903656008E-05  0.69499160720E-05  0.00000000000E+00 0.  1.
</event>
<event>
 5   0  0.1792268E+06  0.9118800E+02  0.7546771E-02  0.1180000E+00
      -11   -1    0    0    0    0  0.00000000000E+00  0.00000000000E+00  0.34996269501E-01  0.35000000000E-01  0.51099999109E-03 0. -1.
       11   -1    0    0    0    0 -0.00000000000E+00 -0.00000000000E+00 -0.34996269501E-01  0.35000000000E-01  0.51099999109E-03 0. -1.
       22    1    1    2    0    0 -0.13169355117E-04 -0.12073340182E-02 -0.33600406447E-01  0.33622093068E-01  0.00000000000E+00 0. -1.
       22    1    1    2    0    0  0.16760408090E-04  0.90263552311E-03 -0.12412932062E-02  0.15348747905E-02  0.00000000000E+00 0.  1.
       22    1    1    2    0    0 -0.35910529731E-05  0.30469849505E-03  0.34841699653E-01  0.34843032141E-01  0.00000000000E+00 0. -1.
</event>
<event>
 5   0  0.1792268E+06  0.9118800E+02  0.7546771E-02  0.1180000E+00
      -11   -1    0    0    0    0  0.00000000000E+00  0.00000000000E+00  0.34996269501E-01  0.35000000000E-01  0.51099999109E-03 0.  1.
       11   -1    0    0    0    0 -0.00000000000E+00 -0.00000000000E+00 -0.34996269501E-01  0.35000000000E-01  0.51099999109E-03 0.  1.
       22    1    1    2    0    0  0.11166868648E-09  0.13964120599E-10 -0.35002950361E-01  0.34999986314E-01  0.00000000000E+00 0.  1.
       22    1    1    2    0    0 -0.11668399031E-05 -0.14591282158E-06  0.34979410693E-01  0.34976444670E-01  0.00000000000E+00 0.  1.
       22    1    1    2    0    0  0.11667282344E-05  0.14589885746E-06  0.23539668325E-04  0.23569016231E-04  0.00000000000E+00 0. -1.
</event>
<event>
 5   0  0.1792268E+06  0.9118800E+02  0.7546771E-02  0.1180000E+00
      -11   -1    0    0    0    0  0.00000000000E+00  0.00000000000E+00  0.34996269501E-01  0.35000000000E-01  0.51099999109E-03 0. -1.
       11   -1    0    0    0    0 -0.00000000000E+00 -0.00000000000E+00 -0.34996269501E-01  0.35000000000E-01  0.51099999109E-03 0.  1.
       22    1    1    2    0    0 -0.52114065804E-02 -0.19533860584E-02  0.34548841500E-01  0.34994241307E-01  0.00000000000E+00 0. -1.
       22    1    1    2    0    0  0.52094040019E-02  0.19538336042E-02 -0.34554595922E-01  0.34999649357E-01  0.00000000000E+00 0.  1.
       22    1    1    2    0    0  0.20025784359E-05 -0.44754584013E-06  0.57544217296E-05  0.61093360616E-05  0.00000000000E+00 0. -1.
</event>
<event>
 5   0  0.1792268E+06  0.9118800E+02  0.7546771E-02  0.1180000E+00
      -11   -1    0    0    0    0  0.00000000000E+00  0.00000000000E+00  0.34996269501E-01  0.35000000000E-01  0.51099999109E-03 0.  1.
       11   -1    0    0    0    0 -0.00000000000E+00 -0.00000000000E+00 -0.34996269501E-01  0.35000000000E-01  0.51099999109E-03 0.  1.
       22    1    1    2    0    0 -0.30178487524E-02 -0.90537658346E-03 -0.26060491260E-01  0.26250263286E-01  0.00000000000E+00 0.  1.
       22    1    1    2    0    0  0.29653281851E-02  0.41125639015E-03 -0.85894639788E-02  0.90962186928E-02  0.00000000000E+00 0. -1.
       22    1    1    2    0    0  0.52520567315E-04  0.49412019331E-03  0.34649955239E-01  0.34653518021E-01  0.00000000000E+00 0.  1.
</event>
<event>
 5   0  0.1792268E+06  0.9118800E+02  0.7546771E-02  0.1180000E+00
      -11   -1    0    0    0    0  0.00000000000E+00  0.00000000000E+00  0.34996269501E-01  0.35000000000E-01  0.51099999109E-03 0. -1.
       11   -1    0    0    0    0 -0.00000000000E+00 -0.00000000000E+00 -0.34996269501E-01  0.35000000000E-01  0.51099999109E-03 0.  1.
       22    1    1    2    0    0 -0.32288698112E-01  0.12220819463E-01 -0.57496911947E-02  0.34999534325E-01  0.00000000000E+00 0. -1.
       22    1    1    2    0    0 -0.53580274294E-07  0.60291890481E-06  0.42890682724E-06  0.74185114277E-06  0.00000000000E+00 0. -1.
       22    1    1    2    0    0  0.32288751692E-01 -0.12221422382E-01  0.57492622878E-02  0.34999723824E-01  0.00000000000E+00 0.  1.
</event>
<event>
 5   0  0.1792268E+06  0.9118800E+02  0.7546771E-02  0.1180000E+00
      -11   -1    0    0    0    0  0.00000000000E+00  0.00000000000E+00  0.34996269501E-01  0.35000000000E-01  0.51099999109E-03 0.  1.
       11   -1    0    0    0    0 -0.00000000000E+00 -0.00000000000E+00 -0.34996269501E-01  0.35000000000E-01  0.51099999109E-03 0. -1.
       22    1    1    2    0    0 -0.15288001430E-08 -0.56389314521E-08  0.14860284018E-07  0.15967555195E-07  0.00000000000E+00 0. -1.
       22    1    1    2    0    0 -0.10925314839E-01 -0.14447818446E-01  0.29948237607E-01  0.34999984256E-01  0.00000000000E+00 0.  1.
       22    1    1    2    0    0  0.10925316367E-01  0.14447824085E-01 -0.29948252467E-01  0.34999999776E-01  0.00000000000E+00 0. -1.
</event>
<event>
 5   0  0.1792268E+06  0.9118800E+02  0.7546771E-02  0.1180000E+00
      -11   -1    0    0    0    0  0.00000000000E+00  0.00000000000E+00  0.34996269501E-01  0.35000000000E-01  0.51099999109E-03 0.  1.
       11   -1    0    0    0    0 -0.00000000000E+00 -0.00000000000E+00 -0.34996269501E-01  0.35000000000E-01  0.51099999109E-03 0. -1.
       22    1    1    2    0    0  0.20884294650E-01 -0.77013195188E-02  0.60834333144E-02  0.23075360155E-01  0.00000000000E+00 0.  1.
       22    1    1    2    0    0 -0.21447033427E-01  0.75478685004E-02 -0.21621455364E-01  0.31375673598E-01  0.00000000000E+00 0. -1.
       22    1    1    2    0    0  0.56273877639E-03  0.15345101833E-03  0.15538022049E-01  0.15548966247E-01  0.00000000000E+00 0. -1.
</event>
<event>
 5   0  0.1792268E+06  0.9118800E+02  0.7546771E-02  0.1180000E+00
      -11   -1    0    0    0    0  0.00000000000E+00  0.00000000000E+00  0.34996269501E-01  0.35000000000E-01  0.51099999109E-03 0. -1.
       11   -1    0    0    0    0 -0.00000000000E+00 -0.00000000000E+00 -0.34996269501E-01  0.35000000000E-01  0.51099999109E-03 0.  1.
       22    1    1    2    0    0 -0.18498546726E-02 -0.83228712214E-02  0.33836931365E-01  0.34894556479E-01  0.00000000000E+00 0. -1.
       22    1    1    2    0    0  0.22619619698E-02  0.83792933447E-02 -0.29546070867E-01  0.30794469188E-01  0.00000000000E+00 0.  1.
       22    1    1    2    0    0 -0.41210729720E-03 -0.56422123302E-04 -0.42908604981E-02  0.43109743324E-02  0.00000000000E+00 0. -1.
</event>
<event>
 5   0  0.1792268E+06  0.9118800E+02  0.7546771E-02  0.1180000E+00
      -11   -1    0    0    0    0  0.00000000000E+00  0.00000000000E+00  0.34996269501E-01  0.35000000000E-01  0.51099999109E-03 0. -1.
       11   -1    0    0    0    0 -0.00000000000E+00 -0.00000000000E+00 -0.34996269501E-01  0.35000000000E-01  0.51099999109E-03 0.  1.
       22    1    1    2    0    0 -0.16139658777E-01  0.13457787876E-01  0.27341736453E-01  0.34484361561E-01  0.00000000000E+00 0. -1.
       22    1    1    2    0    0  0.16137870542E-01 -0.13490516428E-01 -0.27908885298E-01  0.34947543229E-01  0.00000000000E+00 0.  1.
       22    1    1    2    0    0  0.17882350959E-05  0.32728551474E-04  0.56714884521E-03  0.56809521076E-03  0.00000000000E+00 0. -1.
</event>
<event>
 5   0  0.1792268E+06  0.9118800E+02  0.7546771E-02  0.1180000E+00
      -11   -1    0    0    0    0  0.00000000000E+00  0.00000000000E+00  0.34996269501E-01  0.35000000000E-01  0.51099999109E-03 0.  1.
       11   -1    0    0    0    0 -0.00000000000E+00 -0.00000000000E+00 -0.34996269501E-01  0.35000000000E-01  0.51099999109E-03 0. -1.
       22    1    1    2    0    0 -0.13831064422E-01 -0.15976350553E-01  0.27524844252E-01  0.34700996688E-01  0.00000000000E+00 0.  1.
       22    1    1    2    0    0  0.14037080231E-01  0.16000925617E-01 -0.25293288436E-01  0.33057823309E-01  0.00000000000E+00 0. -1.
       22    1    1    2    0    0 -0.20601580858E-03 -0.24575064072E-04 -0.22315558155E-02  0.22411800028E-02  0.00000000000E+00 0. -1.
</event>
<event>
 5   0  0.1792268E+06  0.9118800E+02  0.7546771E-02  0.1180000E+00
      -11   -1    0    0    0    0  0.00000000000E+00  0.00000000000E+00  0.34996269501E-01  0.35000000000E-01  0.51099999109E-03 0. -1.
       11   -1    0    0    0    0 -0.00000000000E+00 -0.00000000000E+00 -0.34996269501E-01  0.35000000000E-01  0.51099999109E-03 0. -1.
       22    1    1    2    0    0  0.21422945421E-03 -0.58544854128E-03  0.34979696941E-01  0.34985251783E-01  0.00000000000E+00 0. -1.
       22    1    1    2    0    0  0.70625408915E-06  0.10540169688E-05  0.14728755286E-04  0.14783300676E-04  0.00000000000E+00 0.  1.
       22    1    1    2    0    0 -0.21493570830E-03  0.58439452431E-03 -0.34994425696E-01  0.34999964916E-01  0.00000000000E+00 0. -1.
</event>
<event>
 5   0  0.1792268E+06  0.9118800E+02  0.7546771E-02  0.1180000E+00
      -11   -1    0    0    0    0  0.00000000000E+00  0.00000000000E+00  0.34996269501E-01  0.35000000000E-01  0.51099999109E-03 0.  1.
       11   -1    0    0    0    0 -0.00000000000E+00 -0.00000000000E+00 -0.34996269501E-01  0.35000000000E-01  0.51099999109E-03 0. -1.
       22    1    1    2    0    0 -0.60003714255E-02 -0.22298441993E-03 -0.34459451809E-01  0.34978679196E-01  0.00000000000E+00 0. -1.
       22    1    1    2    0    0  0.60908532269E-02  0.12554285177E-03  0.34053411247E-01  0.34594061219E-01  0.00000000000E+00 0.  1.
       22    1    1    2    0    0 -0.90481801458E-04  0.97441568163E-04  0.40604056168E-03  0.42725958541E-03  0.00000000000E+00 0. -1.
</event>
<event>
 5   0  0.1792268E+06  0.9118800E+02  0.7546771E-02  0.1180000E+00
      -11   -1    0    0    0    0  0.00000000000E+00  0.00000000000E+00  0.34996269501E-01  0.35000000000E-01  0.51099999109E-03 0. -1.
       11   -1    0    0    0    0 -0.00000000000E+00 -0.00000000000E+00 -0.34996269501E-01  0.35000000000E-01  0.51099999109E-03 0.  1.
       22    1    1    2    0    0  0.25614155627E-03 -0.16996100812E-01  0.28225051718E-01  0.32948241164E-01  0.00000000000E+00 0. -1.
       22    1    1    2    0    0  0.64882561618E-03 -0.61498318938E-03  0.19254980320E-02  0.21229040663E-02  0.00000000000E+00 0.  1.
       22    1    1    2    0    0 -0.90496717245E-03  0.17611084001E-01 -0.30150549750E-01  0.34928854770E-01  0.00000000000E+00 0.  1.
</event>
<event>
 5   0  0.1792268E+06  0.9118800E+02  0.7546771E-02  0.1180000E+00
      -11   -1    0    0    0    0  0.00000000000E+00  0.00000000000E+00  0.34996269501E-01  0.35000000000E-01  0.51099999109E-03 0. -1.
       11   -1    0    0    0    0 -0.00000000000E+00 -0.00000000000E+00 -0.34996269501E-01  0.35000000000E-01  0.51099999109E-03 0.  1.
       22    1    1    2    0    0 -0.74847440322E-02  0.17446076499E-01 -0.29383009276E-01  0.34982112751E-01  0.00000000000E+00 0. -1.
       22    1    1    2    0    0  0.75483749743E-02 -0.17354827278E-01  0.29293209839E-01  0.34874921323E-01  0.00000000000E+00 0.  1.
       22    1    1    2    0    0 -0.63630942105E-04 -0.91249220900E-04  0.89799436474E-04  0.14296592566E-03  0.00000000000E+00 0. -1.
</event>
<event>
 5   0  0.1792268E+06  0.9118800E+02  0.7546771E-02  0.1180000E+00
      -11   -1    0    0    0    0  0.00000000000E+00  0.00000000000E+00  0.34996269501E-01  0.35000000000E-01  0.51099999109E-03 0. -1.
       11   -1    0    0    0    0 -0.00000000000E+00 -0.00000000000E+00 -0.34996269501E-01  0.35000000000E-01  0.51099999109E-03 0.  1.
       22    1    1    2    0    0 -0.15408211140E-01 -0.29124099494E-01 -0.11805539283E-01  0.34999955709E-01  0.00000000000E+00 0.  1.
       22    1    1    2    0    0  0.15408280289E-01  0.29124083050E-01  0.11805482492E-01  0.34999953312E-01  0.00000000000E+00 0. -1.
       22    1    1    2    0    0 -0.69148097652E-07  0.16444165285E-07  0.56791622046E-07  0.90978889394E-07  0.00000000000E+00 0. -1.
</event>
<event>
 5   0  0.1792268E+06  0.9118800E+02  0.7546771E-02  0.1180000E+00
      -11   -1    0    0    0    0  0.00000000000E+00  0.00000000000E+00  0.34996269501E-01  0.35000000000E-01  0.51099999109E-03 0. -1.
       11   -1    0    0    0    0 -0.00000000000E+00 -0.00000000000E+00 -0.34996269501E-01  0.35000000000E-01  0.51099999109E-03 0. -1.
       22    1    1    2    0    0 -0.22004753844E-05  0.20199568200E-05  0.34993370914E-01  0.34992884933E-01  0.00000000000E+00 0. -1.
       22    1    1    2    0    0  0.22003428048E-05 -0.20198351167E-05  0.68016209857E-05  0.74285456444E-05  0.00000000000E+00 0.  1.
       22    1    1    2    0    0  0.13257964061E-09 -0.12170331517E-09 -0.35000172535E-01  0.34999686521E-01  0.00000000000E+00 0. -1.
</event>
<event>
 5   0  0.1792268E+06  0.9118800E+02  0.7546771E-02  0.1180000E+00
      -11   -1    0    0    0    0  0.00000000000E+00  0.00000000000E+00  0.34996269501E-01  0.35000000000E-01  0.51099999109E-03 0.  1.
       11   -1    0    0    0    0 -0.00000000000E+00 -0.00000000000E+00 -0.34996269501E-01  0.35000000000E-01  0.51099999109E-03 0. -1.
       22    1    1    2    0    0 -0.21819623436E-02 -0.66045930918E-02 -0.33073712967E-01  0.33797220285E-01  0.00000000000E+00 0. -1.
       22    1    1    2    0    0  0.11294313354E-02  0.73376181841E-02  0.73494588555E-02  0.10446568873E-01  0.00000000000E+00 0.  1.
       22    1    1    2    0    0  0.10525310082E-02 -0.73302509231E-03  0.25724254112E-01  0.25756210841E-01  0.00000000000E+00 0.  1.
</event>
<event>
 5   0  0.1792268E+06  0.9118800E+02  0.7546771E-02  0.1180000E+00
      -11   -1    0    0    0    0  0.00000000000E+00  0.00000000000E+00  0.34996269501E-01  0.35000000000E-01  0.51099999109E-03 0. -1.
       11   -1    0    0    0    0 -0.00000000000E+00 -0.00000000000E+00 -0.34996269501E-01  0.35000000000E-01  0.51099999109E-03 0.  1.
       22    1    1    2    0    0 -0.53221484530E-07 -0.79442977862E-08  0.72888088093E-07  0.90599733271E-07  0.00000000000E+00 0. -1.
       22    1    1    2    0    0 -0.76729091706E-03  0.11580243006E-01 -0.33019820161E-01  0.34999989813E-01  0.00000000000E+00 0.  1.
       22    1    1    2    0    0  0.76734413854E-03 -0.11580235062E-01  0.33019747273E-01  0.34999919587E-01  0.00000000000E+00 0. -1.
</event>
<event>
 5   0  0.1792268E+06  0.9118800E+02  0.7546771E-02  0.1180000E+00
      -11   -1    0    0    0    0  0.00000000000E+00  0.00000000000E+00  0.34996269501E-01  0.35000000000E-01  0.51099999109E-03 0. -1.
       11   -1    0    0    0    0 -0.00000000000E+00 -0.00000000000E+00 -0.34996269501E-01  0.35000000000E-01  0.51099999109E-03 0.  1.
       22    1    1    2    0    0  0.18351995822E-03  0.37162642210E-03 -0.24379630156E-03  0.48085591327E-03  0.00000000000E+00 0.  1.
       22    1    1    2    0    0  0.83315234847E-04  0.14539224166E-02 -0.34597949433E-01  0.34628585544E-01  0.00000000000E+00 0.  1.
       22    1    1    2    0    0 -0.26683519306E-03 -0.18255488387E-02  0.34841745735E-01  0.34890558543E-01  0.00000000000E+00 0. -1.
</event>
<event>
 5   0  0.1792268E+06  0.9118800E+02  0.7546771E-02  0.1180000E+00
      -11   -1    0    0    0    0  0.00000000000E+00  0.00000000000E+00  0.34996269501E-01  0.35000000000E-01  0.51099999109E-03 0.  1.
       11   -1    0    0    0    0 -0.00000000000E+00 -0.00000000000E+00 -0.34996269501E-01  0.35000000000E-01  0.51099999109E-03 0. -1.
       22    1    1    2    0    0 -0.25661366338E-02 -0.84614180963E-03 -0.34855134753E-01  0.34959711553E-01  0.00000000000E+00 0. -1.
       22    1    1    2    0    0 -0.27022354146E-04  0.48539206845E-04 -0.20552127613E-04  0.59233876914E-04  0.00000000000E+00 0. -1.
       22    1    1    2    0    0  0.25931589880E-02  0.79760260279E-03  0.34875686881E-01  0.34981054570E-01  0.00000000000E+00 0.  1.
</event>
<event>
 5   0  0.1792268E+06  0.9118800E+02  0.7546771E-02  0.1180000E+00
      -11   -1    0    0    0    0  0.00000000000E+00  0.00000000000E+00  0.34996269501E-01  0.35000000000E-01  0.51099999109E-03 0. -1.
       11   -1    0    0    0    0 -0.00000000000E+00 -0.00000000000E+00 -0.34996269501E-01  0.35000000000E-01  0.51099999109E-03 0.  1.
       22    1    1    2    0    0  0.16129183504E-01 -0.27649258403E-02 -0.22037669261E-01  0.27449120968E-01  0.00000000000E+00 0.  1.
       22    1    1    2    0    0 -0.17368923538E-01  0.37779483361E-02 -0.25097051048E-02  0.17951351431E-01  0.00000000000E+00 0. -1.
       22    1    1    2    0    0  0.12397400334E-02 -0.10130224958E-02  0.24547374366E-01  0.24599527601E-01  0.00000000000E+00 0. -1.
</event>
<event>
 5   0  0.1792268E+06  0.9118800E+02  0.7546771E-02  0.1180000E+00
      -11   -1    0    0    0    0  0.00000000000E+00  0.00000000000E+00  0.34996269501E-01  0.35000000000E-01  0.51099999109E-03 0. -1.
       11   -1    0    0    0    0 -0.00000000000E+00 -0.00000000000E+00 -0.34996269501E-01  0.35000000000E-01  0.51099999109E-03 0.  1.
       22    1    1    2    0    0 -0.11853527329E-01 -0.16491904877E-01  0.28436315423E-01  0.34944428332E-01  0.00000000000E+00 0. -1.
       22    1    1    2    0    0 -0.11940866508E-03  0.30583308365E-04 -0.33315608449E-03  0.35522773636E-03  0.00000000000E+00 0. -1.
       22    1    1    2    0    0  0.11972935994E-01  0.16461321569E-01 -0.28103159339E-01  0.34700343931E-01  0.00000000000E+00 0.  1.
</event>
<event>
 5   0  0.1792268E+06  0.9118800E+02  0.7546771E-02  0.1180000E+00
      -11   -1    0    0    0    0  0.00000000000E+00  0.00000000000E+00  0.34996269501E-01  0.35000000000E-01  0.51099999109E-03 0.  1.
       11   -1    0    0    0    0 -0.00000000000E+00 -0.00000000000E+00 -0.34996269501E-01  0.35000000000E-01  0.51099999109E-03 0. -1.
       22    1    1    2    0    0 -0.13527325819E-02  0.17107069291E-02  0.34930665629E-01  0.34998682902E-01  0.00000000000E+00 0.  1.
       22    1    1    2    0    0 -0.75596054732E-07  0.44345170626E-06  0.12672927608E-05  0.13447658238E-05  0.00000000000E+00 0.  1.
       22    1    1    2    0    0  0.13528081780E-02 -0.17111503808E-02 -0.34931932922E-01  0.34999972332E-01  0.00000000000E+00 0. -1.
</event>
<event>
 5   0  0.1792268E+06  0.9118800E+02  0.7546771E-02  0.1180000E+00
      -11   -1    0    0    0    0  0.00000000000E+00  0.00000000000E+00  0.34996269501E-01  0.35000000000E-01  0.51099999109E-03 0. -1.
       11   -1    0    0    0    0 -0.00000000000E+00 -0.00000000000E+00 -0.34996269501E-01  0.35000000000E-01  0.51099999109E-03 0. -1.
       22    1    1    2    0    0 -0.39090471289E-03  0.71219362552E-03  0.20470245766E-02  0.22023478090E-02  0.00000000000E+00 0.  1.
       22    1    1    2    0    0  0.32410137179E-03 -0.10219981639E-02  0.32865852873E-01  0.32883336312E-01  0.00000000000E+00 0. -1.
       22    1    1    2    0    0  0.66803341096E-04  0.30980453841E-03 -0.34912877449E-01  0.34914315879E-01  0.00000000000E+00 0. -1.
</event>
<event>
 5   0  0.1792268E+06  0.9118800E+02  0.7546771E-02  0.1180000E+00
      -11   -1    0    0    0    0  0.00000000000E+00  0.00000000000E+00  0.34996269501E-01  0.35000000000E-01  0.51099999109E-03 0. -1.
       11   -1    0    0    0    0 -0.00000000000E+00 -0.00000000000E+00 -0.34996269501E-01  0.35000000000E-01  0.51099999109E-03 0. -1.
       22    1    1    2    0    0 -0.21265999508E-05 -0.11277762919E-06  0.22666560951E-05  0.31101247560E-05  0.00000000000E+00 0.  1.
       22    1    1    2    0    0  0.21267397198E-05  0.11278504140E-06  0.34998181001E-01  0.34997311614E-01  0.00000000000E+00 0. -1.
       22    1    1    2    0    0 -0.13976904621E-09 -0.74122176382E-11 -0.35000447657E-01  0.34999578261E-01  0.00000000000E+00 0. -1.
</event>
<event>
 5   0  0.1792268E+06  0.9118800E+02  0.7546771E-02  0.1180000E+00
      -11   -1    0    0    0    0  0.00000000000E+00  0.00000000000E+00  0.34996269501E-01  0.35000000000E-01  0.51099999109E-03 0. -1.
       11   -1    0    0    0    0 -0.00000000000E+00 -0.00000000000E+00 -0.34996269501E-01  0.35000000000E-01  0.51099999109E-03 0.  1.
       22    1    1    2    0    0 -0.12423667005E-04  0.28138105433E-04 -0.22063791946E-03  0.22277161395E-03  0.00000000000E+00 0.  1.
       22    1    1    2    0    0  0.18783838743E-01  0.13355999398E-01 -0.26078460921E-01  0.34803756146E-01  0.00000000000E+00 0.  1.
       22    1    1    2    0    0 -0.18771415076E-01 -0.13384137503E-01  0.26299098841E-01  0.34973472240E-01  0.00000000000E+00 0. -1.
</event>
<event>
 5   0  0.1792268E+06  0.9118800E+02  0.7546771E-02  0.1180000E+00
      -11   -1    0    0    0    0  0.00000000000E+00  0.00000000000E+00  0.34996269501E-01  0.35000000000E-01  0.51099999109E-03 0. -1.
       11   -1    0    0    0    0 -0.00000000000E+00 -0.00000000000E+00 -0.34996269501E-01  0.35000000000E-01  0.51099999109E-03 0.  1.
       22    1    1    2    0    0  0.37493648659E-02 -0.23292275555E-02 -0.34720460706E-01  0.34999906136E-01  0.00000000000E+00 0.  1.
       22    1    1    2    0    0 -0.37499415804E-02  0.23292614455E-02  0.34719030399E-01  0.34998551293E-01  0.00000000000E+00 0. -1.
       22    1    1    2    0    0  0.57671449184E-06 -0.33889991219E-07  0.14303064738E-05  0.15425708236E-05  0.00000000000E+00 0.  1.
</event>
<event>
 5   0  0.1792268E+06  0.9118800E+02  0.7546771E-02  0.1180000E+00
      -11   -1    0    0    0    0  0.00000000000E+00  0.00000000000E+00  0.34996269501E-01  0.35000000000E-01  0.51099999109E-03 0.  1.
       11   -1    0    0    0    0 -0.00000000000E+00 -0.00000000000E+00 -0.34996269501E-01  0.35000000000E-01  0.51099999109E-03 0.  1.
       22    1    1    2    0    0 -0.87655809684E-07 -0.43936071680E-07 -0.23138780682E-08  0.98077894542E-07  0.00000000000E+00 0. -1.
       22    1    1    2    0    0  0.87660597933E-07  0.43938471713E-07  0.35000045002E-01  0.34999952118E-01  0.00000000000E+00 0.  1.
       22    1    1    2    0    0 -0.47882490436E-11 -0.24000331976E-11 -0.35000042688E-01  0.34999949804E-01  0.00000000000E+00 0.  1.
</event>
<event>
 5   0  0.1792268E+06  0.9118800E+02  0.7546771E-02  0.1180000E+00
      -11   -1    0    0    0    0  0.00000000000E+00  0.00000000000E+00  0.34996269501E-01  0.35000000000E-01  0.51099999109E-03 0. -1.
       11   -1    0    0    0    0 -0.00000000000E+00 -0.00000000000E+00 -0.34996269501E-01  0.35000000000E-01  0.51099999109E-03 0.  1.
       22    1    1    2    0    0  0.29674301775E-03  0.24850009921E-02  0.33964811586E-01  0.34056889353E-01  0.00000000000E+00 0. -1.
       22    1    1    2    0    0  0.80061057885E-05 -0.44413837524E-04  0.94534409337E-03  0.94642070010E-03  0.00000000000E+00 0.  1.
       22    1    1    2    0    0 -0.30474912353E-03 -0.24405871546E-02 -0.34910155679E-01  0.34996689947E-01  0.00000000000E+00 0.  1.
</event>
<event>
 5   0  0.1792268E+06  0.9118800E+02  0.7546771E-02  0.1180000E+00
      -11   -1    0    0    0    0  0.00000000000E+00  0.00000000000E+00  0.34996269501E-01  0.35000000000E-01  0.51099999109E-03 0. -1.
       11   -1    0    0    0    0 -0.00000000000E+00 -0.00000000000E+00 -0.34996269501E-01  0.35000000000E-01  0.51099999109E-03 0.  1.
       22    1    1    2    0    0  0.18986905481E-03  0.23562015798E-03 -0.46053949853E-02  0.46153255668E-02  0.00000000000E+00 0.  1.
       22    1    1    2    0    0  0.51629471269E-03  0.35009322464E-03  0.34985329203E-01  0.34990890028E-01  0.00000000000E+00 0. -1.
       22    1    1    2    0    0 -0.70616376750E-03 -0.58571338262E-03 -0.30379934217E-01  0.30393784406E-01  0.00000000000E+00 0.  1.
</event>
<event>
 5   0  0.1792268E+06  0.9118800E+02  0.7546771E-02  0.1180000E+00
      -11   -1    0    0    0    0  0.00000000000E+00  0.00000000000E+00  0.34996269501E-01  0.35000000000E-01  0.51099999109E-03 0.  1.
       11   -1    0    0    0    0 -0.00000000000E+00 -0.00000000000E+00 -0.34996269501E-01  0.35000000000E-01  0.51099999109E-03 0.  1.
       22    1    1    2    0    0  0.11813682373E-05  0.25621503841E-06  0.34999066450E-01  0.34996688557E-01  0.00000000000E+00 0.  1.
       22    1    1    2    0    0 -0.11812651397E-05 -0.25619267860E-06  0.32010402646E-05  0.34216488415E-05  0.00000000000E+00 0. -1.
       22    1    1    2    0    0 -0.10309764664E-09 -0.22359808448E-10 -0.35002267490E-01  0.34999889794E-01  0.00000000000E+00 0.  1.
</event>
<event>
 5   0  0.1792268E+06  0.9118800E+02  0.7546771E-02  0.1180000E+00
      -11   -1    0    0    0    0  0.00000000000E+00  0.00000000000E+00  0.34996269501E-01  0.35000000000E-01  0.51099999109E-03 0. -1.
       11   -1    0    0    0    0 -0.00000000000E+00 -0.00000000000E+00 -0.34996269501E-01  0.35000000000E-01  0.51099999109E-03 0.  1.
       22    1    1    2    0    0 -0.11576568675E-02 -0.97990905905E-03 -0.34904258317E-01  0.34937195650E-01  0.00000000000E+00 0.  1.
       22    1    1    2    0    0 -0.65260689722E-04  0.31426529293E-04 -0.41040709709E-04  0.83252172463E-04  0.00000000000E+00 0. -1.
       22    1    1    2    0    0  0.12229175572E-02  0.94848252976E-03  0.34945299027E-01  0.34979552178E-01  0.00000000000E+00 0. -1.
</event>
<event>
 5   0  0.1792268E+06  0.9118800E+02  0.7546771E-02  0.1180000E+00
      -11   -1    0    0    0    0  0.00000000000E+00  0.00000000000E+00  0.34996269501E-01  0.35000000000E-01  0.51099999109E-03 0.  1.
       11   -1    0    0    0    0 -0.00000000000E+00 -0.00000000000E+00 -0.34996269501E-01  0.35000000000E-01  0.51099999109E-03 0. -1.
       22    1    1    2    0    0  0.24743864398E-01  0.64396888983E-02  0.77904551657E-02  0.26728629036E-01  0.00000000000E+00 0.  1.
       22    1    1    2    0    0 -0.26445148108E-01 -0.62763227613E-02 -0.18207732331E-01  0.32714822367E-01  0.00000000000E+00 0. -1.
       22    1    1    2    0    0  0.17012837100E-02 -0.16336613703E-03  0.10417277165E-01  0.10556548598E-01  0.00000000000E+00 0.  1.
</event>
<event>
 5   0  0.1792268E+06  0.9118800E+02  0.7546771E-02  0.1180000E+00
      -11   -1    0    0    0    0  0.00000000000E+00  0.00000000000E+00  0.34996269501E-01  0.35000000000E-01  0.51099999109E-03 0.  1.
       11   -1    0    0    0    0 -0.00000000000E+00 -0.00000000000E+00 -0.34996269501E-01  0.35000000000E-01  0.51099999109E-03 0. -1.
       22    1    1    2    0    0  0.98244541966E-03 -0.43096273763E-03  0.34674704301E-01  0.34691296405E-01  0.00000000000E+00 0.  1.
       22    1    1    2    0    0 -0.74363540565E-03 -0.18152675667E-03 -0.15283985519E-03  0.78058029777E-03  0.00000000000E+00 0.  1.
       22    1    1    2    0    0 -0.23881001401E-03  0.61248949430E-03 -0.34521864446E-01  0.34528123297E-01  0.00000000000E+00 0. -1.
</event>
<event>
 5   0  0.1792268E+06  0.9118800E+02  0.7546771E-02  0.1180000E+00
      -11   -1    0    0    0    0  0.00000000000E+00  0.00000000000E+00  0.34996269501E-01  0.35000000000E-01  0.51099999109E-03 0.  1.
       11   -1    0    0    0    0 -0.00000000000E+00 -0.00000000000E+00 -0.34996269501E-01  0.35000000000E-01  0.51099999109E-03 0. -1.
       22    1    1    2    0    0  0.14387063872E-09  0.21252827776E-09  0.70673400076E-08  0.70719984313E-08  0.00000000000E+00 0. -1.
       22    1    1    2    0    0  0.13473415799E-01  0.61785378269E-02  0.31706344195E-01  0.34999993216E-01  0.00000000000E+00 0.  1.
       22    1    1    2    0    0 -0.13473415943E-01 -0.61785380394E-02 -0.31706351262E-01  0.34999999712E-01  0.00000000000E+00 0. -1.
</event>
<event>
 5   0  0.1792268E+06  0.9118800E+02  0.7546771E-02  0.1180000E+00
      -11   -1    0    0    0    0  0.00000000000E+00  0.00000000000E+00  0.34996269501E-01  0.35000000000E-01  0.51099999109E-03 0. -1.
       11   -1    0    0    0    0 -0.00000000000E+00 -0.00000000000E+00 -0.34996269501E-01  0.35000000000E-01  0.51099999109E-03 0.  1.
       22    1    1    2    0    0  0.18238753689E-02  0.82037552029E-03  0.34942717843E-01  0.34999900965E-01  0.00000000000E+00 0. -1.
       22    1    1    2    0    0 -0.18239490271E-02 -0.82048375871E-03 -0.34942769041E-01  0.34999958456E-01  0.00000000000E+00 0.  1.
       22    1    1    2    0    0  0.73658203728E-07  0.10823841185E-06  0.51198387148E-07  0.14057865991E-06  0.00000000000E+00 0.  1.
</event>
<event>
 5   0  0.1792268E+06  0.9118800E+02  0.7546771E-02  0.1180000E+00
      -11   -1    0    0    0    0  0.00000000000E+00  0.00000000000E+00  0.34996269501E-01  0.35000000000E-01  0.51099999109E-03 0. -1.
       11   -1    0    0    0    0 -0.00000000000E+00 -0.00000000000E+00 -0.34996269501E-01  0.35000000000E-01  0.51099999109E-03 0.  1.
       22    1    1    2    0    0 -0.20394051669E-01  0.73633755017E-02  0.27071527128E-01  0.34684351274E-01  0.00000000000E+00 0. -1.
       22    1    1    2    0    0 -0.20163567987E-04  0.11227901956E-04 -0.26197974491E-02  0.26198991029E-02  0.00000000000E+00 0. -1.
       22    1    1    2    0    0  0.20414215237E-01 -0.73746034037E-02 -0.24451729679E-01  0.32695749623E-01  0.00000000000E+00 0.  1.
</event>
<event>
 5   0  0.1792268E+06  0.9118800E+02  0.7546771E-02  0.1180000E+00
      -11   -1    0    0    0    0  0.00000000000E+00  0.00000000000E+00  0.34996269501E-01  0.35000000000E-01  0.51099999109E-03 0.  1.
       11   -1    0    0    0    0 -0.00000000000E+00 -0.00000000000E+00 -0.34996269501E-01  0.35000000000E-01  0.51099999109E-03 0. -1.
       22    1    1    2    0    0 -0.86176135913E-02  0.12630745480E-01 -0.31483307920E-01  0.34999966757E-01  0.00000000000E+00 0. -1.
       22    1    1    2    0    0  0.86176904175E-02 -0.12630727901E-01  0.31483271198E-01  0.34999946296E-01  0.00000000000E+00 0.  1.
       22    1    1    2    0    0 -0.76826127071E-07 -0.17579648229E-07  0.36721839237E-07  0.86947060385E-07  0.00000000000E+00 0.  1.
</event>
<event>
 5   0  0.1792268E+06  0.9118800E+02  0.7546771E-02  0.1180000E+00
      -11   -1    0    0    0    0  0.00000000000E+00  0.00000000000E+00  0.34996269501E-01  0.35000000000E-01  0.51099999109E-03 0.  1.
       11   -1    0    0    0    0 -0.00000000000E+00 -0.00000000000E+00 -0.34996269501E-01  0.35000000000E-01  0.51099999109E-03 0. -1.
       22    1    1    2    0    0 -0.20685939099E-02  0.34645753951E-01  0.45060015385E-02  0.34998734227E-01  0.00000000000E+00 0. -1.
       22    1    1    2    0    0  0.25940436362E-06  0.10705740549E-05  0.83135111816E-06  0.13800594598E-05  0.00000000000E+00 0. -1.
       22    1    1    2    0    0  0.20683345056E-02 -0.34646824525E-01 -0.45068328896E-02  0.34999885714E-01  0.00000000000E+00 0.  1.
</event>
<event>
 5   0  0.1792268E+06  0.9118800E+02  0.7546771E-02  0.1180000E+00
      -11   -1    0    0    0    0  0.00000000000E+00  0.00000000000E+00  0.34996269501E-01  0.35000000000E-01  0.51099999109E-03 0. -1.
       11   -1    0    0    0    0 -0.00000000000E+00 -0.00000000000E+00 -0.34996269501E-01  0.35000000000E-01  0.51099999109E-03 0.  1.
       22    1    1    2    0    0  0.11259353870E-02 -0.13193009852E-01  0.32398683054E-01  0.34999970044E-01  0.00000000000E+00 0. -1.
       22    1    1    2    0    0 -0.11259345487E-02  0.13193005472E-01 -0.32398714876E-01  0.34999997823E-01  0.00000000000E+00 0.  1.
       22    1    1    2    0    0 -0.83833459971E-09  0.43798836335E-08  0.31822115846E-07  0.32133055293E-07  0.00000000000E+00 0.  1.
</event>
<event>
 5   0  0.1792268E+06  0.9118800E+02  0.7546771E-02  0.1180000E+00
      -11   -1    0    0    0    0  0.00000000000E+00  0.00000000000E+00  0.34996269501E-01  0.35000000000E-01  0.51099999109E-03 0.  1.
       11   -1    0    0    0    0 -0.00000000000E+00 -0.00000000000E+00 -0.34996269501E-01  0.35000000000E-01  0.51099999109E-03 0. -1.
       22    1    1    2    0    0 -0.10447904435E-06  0.22783540641E-06  0.10904849576E-05  0.11189201428E-05  0.00000000000E+00 0. -1.
       22    1    1    2    0    0  0.97239005916E-03  0.67502087621E-03  0.34978871423E-01  0.34998894863E-01  0.00000000000E+00 0.  1.
       22    1    1    2    0    0 -0.97228558011E-03 -0.67524871161E-03 -0.34979961908E-01  0.34999986217E-01  0.00000000000E+00 0. -1.
</event>
<event>
 5   0  0.1792268E+06  0.9118800E+02  0.7546771E-02  0.1180000E+00
      -11   -1    0    0    0    0  0.00000000000E+00  0.00000000000E+00  0.34996269501E-01  0.35000000000E-01  0.51099999109E-03 0.  1.
       11   -1    0    0    0    0 -0.00000000000E+00 -0.00000000000E+00 -0.34996269501E-01  0.35000000000E-01  0.51099999109E-03 0. -1.
       22    1    1    2    0    0 -0.84815703498E-04  0.31284042054E-02 -0.22031430308E-01  0.22252595984E-01  0.00000000000E+00 0. -1.
       22    1    1    2    0    0 -0.20963852760E-03 -0.36283196951E-03 -0.12799126711E-01  0.12805984535E-01  0.00000000000E+00 0.  1.
       22    1    1    2    0    0  0.29445423110E-03 -0.27655722359E-02  0.34830557019E-01  0.34941419481E-01  0.00000000000E+00 0.  1.
</event>
<event>
 5   0  0.1792268E+06  0.9118800E+02  0.7546771E-02  0.1180000E+00
      -11   -1    0    0    0    0  0.00000000000E+00  0.00000000000E+00  0.34996269501E-01  0.35000000000E-01  0.51099999109E-03 0. -1.
       11   -1    0    0    0    0 -0.00000000000E+00 -0.00000000000E+00 -0.34996269501E-01  0.35000000000E-01  0.51099999109E-03 0.  1.
       22    1    1    2    0    0 -0.17199746829E-07  0.12416809336E-07  0.13280865142E-05  0.13282559233E-05  0.00000000000E+00 0.  1.
       22    1    1    2    0    0 -0.24343344222E-02  0.28049994798E-02 -0.34802379929E-01  0.34999995070E-01  0.00000000000E+00 0.  1.
       22    1    1    2    0    0  0.24343516219E-02 -0.28050118966E-02  0.34801051843E-01  0.34998676674E-01  0.00000000000E+00 0. -1.
</event>
<event>
 5   0  0.1792268E+06  0.9118800E+02  0.7546771E-02  0.1180000E+00
      -11   -1    0    0    0    0  0.00000000000E+00  0.00000000000E+00  0.34996269501E-01  0.35000000000E-01  0.51099999109E-03 0. -1.
       11   -1    0    0    0    0 -0.00000000000E+00 -0.00000000000E+00 -0.34996269501E-01  0.35000000000E-01  0.51099999109E-03 0.  1.
       22    1    1    2    0    0  0.38061188549E-03 -0.67257160633E-02  0.34345594549E-01  0.34999999812E-01  0.00000000000E+00 0. -1.
       22    1    1    2    0    0 -0.38061153250E-03  0.67257163052E-02 -0.34345594437E-01  0.34999999745E-01  0.00000000000E+00 0.  1.
       22    1    1    2    0    0 -0.35298697083E-09 -0.24187915318E-09 -0.11186732385E-09  0.44228907342E-09  0.00000000000E+00 0. -1.
</event>
<event>
 5   0  0.1792268E+06  0.9118800E+02  0.7546771E-02  0.1180000E+00
      -11   -1    0    0    0    0  0.00000000000E+00  0.00000000000E+00  0.34996269501E-01  0.35000000000E-01  0.51099999109E-03 0. -1.
       11   -1    0    0    0    0 -0.00000000000E+00 -0.00000000000E+00 -0.34996269501E-01  0.35000000000E-01  0.51099999109E-03 0.  1.
       22    1    1    2    0    0 -0.11010153752E-01  0.29642168316E-02  0.33090616164E-01  0.34999984931E-01  0.00000000000E+00 0. -1.
       22    1    1    2    0    0 -0.36193984850E-08  0.10918572020E-08  0.14611831550E-07  0.15092972497E-07  0.00000000000E+00 0. -1.
       22    1    1    2    0    0  0.11010157371E-01 -0.29642179235E-02 -0.33090630775E-01  0.34999999976E-01  0.00000000000E+00 0.  1.
</event>
<event>
 5   0  0.1792268E+06  0.9118800E+02  0.7546771E-02  0.1180000E+00
      -11   -1    0    0    0    0  0.00000000000E+00  0.00000000000E+00  0.34996269501E-01  0.35000000000E-01  0.51099999109E-03 0.  1.
       11   -1    0    0    0    0 -0.00000000000E+00 -0.00000000000E+00 -0.34996269501E-01  0.35000000000E-01  0.51099999109E-03 0. -1.
       22    1    1    2    0    0 -0.14573328463E-02 -0.75684564319E-03 -0.34961455242E-01  0.34999999814E-01  0.00000000000E+00 0. -1.
       22    1    1    2    0    0 -0.59131487313E-09 -0.20415865845E-09  0.39928889022E-09  0.74213587359E-09  0.00000000000E+00 0. -1.
       22    1    1    2    0    0  0.14573334376E-02  0.75684584735E-03  0.34961454842E-01  0.34999999444E-01  0.00000000000E+00 0.  1.
</event>
<event>
 5   0  0.1792268E+06  0.9118800E+02  0.7546771E-02  0.1180000E+00
      -11   -1    0    0    0    0  0.00000000000E+00  0.00000000000E+00  0.34996269501E-01  0.35000000000E-01  0.51099999109E-03 0.  1.
       11   -1    0    0    0    0 -0.00000000000E+00 -0.00000000000E+00 -0.34996269501E-01  0.35000000000E-01  0.51099999109E-03 0. -1.
       22    1    1    2    0    0  0.88926356995E-05 -0.23292285459E-05  0.17639904023E-03  0.17663840372E-03  0.00000000000E+00 0.  1.
       22    1    1    2    0    0  0.22220317453E-01 -0.10183823323E-01  0.24834639918E-01  0.34845546416E-01  0.00000000000E+00 0.  1.
       22    1    1    2    0    0 -0.22229210089E-01  0.10186152552E-01 -0.25011038958E-01  0.34977815180E-01  0.00000000000E+00 0. -1.
</event>
<event>
 5   0  0.1792268E+06  0.9118800E+02  0.7546771E-02  0.1180000E+00
      -11   -1    0    0    0    0  0.00000000000E+00  0.00000000000E+00  0.34996269501E-01  0.35000000000E-01  0.51099999109E-03 0. -1.
       11   -1    0    0    0    0 -0.00000000000E+00 -0.00000000000E+00 -0.34996269501E-01  0.35000000000E-01  0.51099999109E-03 0.  1.
       22    1    1    2    0    0  0.18544331719E-01  0.50313341441E-02  0.28037434141E-01  0.33989767216E-01  0.00000000000E+00 0. -1.
       22    1    1    2    0    0 -0.18510723460E-01 -0.50550768214E-02 -0.29148991610E-01  0.34897913928E-01  0.00000000000E+00 0.  1.
       22    1    1    2    0    0 -0.33608259651E-04  0.23742677202E-04  0.11115574687E-02  0.11123188554E-02  0.00000000000E+00 0.  1.
</event>
<event>
 5   0  0.1792268E+06  0.9118800E+02  0.7546771E-02  0.1180000E+00
      -11   -1    0    0    0    0  0.00000000000E+00  0.00000000000E+00  0.34996269501E-01  0.35000000000E-01  0.51099999109E-03 0.  1.
       11   -1    0    0    0    0 -0.00000000000E+00 -0.00000000000E+00 -0.34996269501E-01  0.35000000000E-01  0.51099999109E-03 0. -1.
       22    1    1    2    0    0  0.52042658821E-02  0.88909793196E-03  0.34597002966E-01  0.34997535524E-01  0.00000000000E+00 0.  1.
       22    1    1    2    0    0  0.57372272654E-06 -0.10087345769E-05  0.23103037763E-05  0.25853832892E-05  0.00000000000E+00 0. -1.
       22    1    1    2    0    0 -0.52048396049E-02 -0.88808919739E-03 -0.34599313270E-01  0.34999879093E-01  0.00000000000E+00 0. -1.
</event>
<event>
 5   0  0.1792268E+06  0.9118800E+02  0.7546771E-02  0.1180000E+00
      -11   -1    0    0    0    0  0.00000000000E+00  0.00000000000E+00  0.34996269501E-01  0.35000000000E-01  0.51099999109E-03 0.  1.
       11   -1    0    0    0    0 -0.00000000000E+00 -0.00000000000E+00 -0.34996269501E-01  0.35000000000E-01  0.51099999109E-03 0. -1.
       22    1    1    2    0    0 -0.41127948868E-07  0.60424333471E-07  0.36306791041E-06  0.37035242111E-06  0.00000000000E+00 0.  1.
       22    1    1    2    0    0 -0.59616229634E-02 -0.34344004330E-01  0.31521645587E-02  0.34999824617E-01  0.00000000000E+00 0.  1.
       22    1    1    2    0    0  0.59616640914E-02  0.34343943906E-01 -0.31525276266E-02  0.34999805031E-01  0.00000000000E+00 0. -1.
</event>
<event>
 5   0  0.1792268E+06  0.9118800E+02  0.7546771E-02  0.1180000E+00
      -11   -1    0    0    0    0  0.00000000000E+00  0.00000000000E+00  0.34996269501E-01  0.35000000000E-01  0.51099999109E-03 0. -1.
       11   -1    0    0    0    0 -0.00000000000E+00 -0.00000000000E+00 -0.34996269501E-01  0.35000000000E-01  0.51099999109E-03 0. -1.
       22    1    1    2    0    0  0.46844403575E-03 -0.35925181454E-03 -0.34994965852E-01  0.34999944809E-01  0.00000000000E+00 0. -1.
       22    1    1    2    0    0 -0.46895091780E-03  0.35902593456E-03  0.34993562152E-01  0.34998545780E-01  0.00000000000E+00 0. -1.
       22    1    1    2    0    0  0.50688204659E-06  0.22587997193E-06  0.14036993506E-05  0.15094114872E-05  0.00000000000E+00 0.  1.
</event>
<event>
 5   0  0.1792268E+06  0.9118800E+02  0.7546771E-02  0.1180000E+00
      -11   -1    0    0    0    0  0.00000000000E+00  0.00000000000E+00  0.34996269501E-01  0.35000000000E-01  0.51099999109E-03 0. -1.
       11   -1    0    0    0    0 -0.00000000000E+00 -0.00000000000E+00 -0.34996269501E-01  0.35000000000E-01  0.51099999109E-03 0.  1.
       22    1    1    2    0    0 -0.12899573598E-05 -0.37265516051E-03  0.76736492506E-02  0.76826926499E-02  0.00000000000E+00 0.  1.
       22    1    1    2    0    0 -0.71352728393E-03 -0.26050391478E-03 -0.34983010574E-01  0.34991256227E-01  0.00000000000E+00 0.  1.
       22    1    1    2    0    0  0.71481724129E-03  0.63315907529E-03  0.27309361324E-01  0.27326051124E-01  0.00000000000E+00 0. -1.
</event>
<event>
 5   0  0.1792268E+06  0.9118800E+02  0.7546771E-02  0.1180000E+00
      -11   -1    0    0    0    0  0.00000000000E+00  0.00000000000E+00  0.34996269501E-01  0.35000000000E-01  0.51099999109E-03 0. -1.
       11   -1    0    0    0    0 -0.00000000000E+00 -0.00000000000E+00 -0.34996269501E-01  0.35000000000E-01  0.51099999109E-03 0.  1.
       22    1    1    2    0    0 -0.19728004285E-02 -0.10580811701E-02  0.29288012310E-01  0.29373442807E-01  0.00000000000E+00 0. -1.
       22    1    1    2    0    0  0.27038593001E-03  0.15197889584E-02  0.55414602512E-02  0.57524471962E-02  0.00000000000E+00 0. -1.
       22    1    1    2    0    0  0.17024144985E-02 -0.46170778830E-03 -0.34829472561E-01  0.34874109997E-01  0.00000000000E+00 0.  1.
</event>
<event>
 5   0  0.1792268E+06  0.9118800E+02  0.7546771E-02  0.1180000E+00
      -11   -1    0    0    0    0  0.00000000000E+00  0.00000000000E+00  0.34996269501E-01  0.35000000000E-01  0.51099999109E-03 0. -1.
       11   -1    0    0    0    0 -0.00000000000E+00 -0.00000000000E+00 -0.34996269501E-01  0.35000000000E-01  0.51099999109E-03 0.  1.
       22    1    1    2    0    0  0.14109927968E-01 -0.11013664844E-01  0.29187322591E-01  0.34238730710E-01  0.00000000000E+00 0. -1.
       22    1    1    2    0    0 -0.14238742310E-01  0.10877704558E-01 -0.29991013608E-01  0.34936043512E-01  0.00000000000E+00 0.  1.
       22    1    1    2    0    0  0.12881434191E-03  0.13596028641E-03  0.80369101686E-03  0.82522577804E-03  0.00000000000E+00 0. -1.
</event>
<event>
 5   0  0.1792268E+06  0.9118800E+02  0.7546771E-02  0.1180000E+00
      -11   -1    0    0    0    0  0.00000000000E+00  0.00000000000E+00  0.34996269501E-01  0.35000000000E-01  0.51099999109E-03 0.  1.
       11   -1    0    0    0    0 -0.00000000000E+00 -0.00000000000E+00 -0.34996269501E-01  0.35000000000E-01  0.51099999109E-03 0. -1.
       22    1    1    2    0    0  0.47164307398E-02  0.77778605642E-02  0.33725875009E-01  0.34930995963E-01  0.00000000000E+00 0.  1.
       22    1    1    2    0    0 -0.47108827303E-02 -0.77766290680E-02 -0.33796491037E-01  0.34998159697E-01  0.00000000000E+00 0. -1.
       22    1    1    2    0    0 -0.55480095411E-05 -0.12314961469E-05  0.70616028505E-04  0.70844339749E-04  0.00000000000E+00 0.  1.
</event>
<event>
 5   0  0.1792268E+06  0.9118800E+02  0.7546771E-02  0.1180000E+00
      -11   -1    0    0    0    0  0.00000000000E+00  0.00000000000E+00  0.34996269501E-01  0.35000000000E-01  0.51099999109E-03 0. -1.
       11   -1    0    0    0    0 -0.00000000000E+00 -0.00000000000E+00 -0.34996269501E-01  0.35000000000E-01  0.51099999109E-03 0. -1.
       22    1    1    2    0    0 -0.88858854037E-04  0.27554891138E-03  0.34990901706E-01  0.34992099470E-01  0.00000000000E+00 0. -1.
       22    1    1    2    0    0  0.25554859726E-03 -0.25243903606E-03 -0.34061017083E-01  0.34062911140E-01  0.00000000000E+00 0. -1.
       22    1    1    2    0    0 -0.16668974323E-03 -0.23109875314E-04 -0.92988462277E-03  0.94498939068E-03  0.00000000000E+00 0.  1.
</event>
<event>
 5   0  0.1792268E+06  0.9118800E+02  0.7546771E-02  0.1180000E+00
      -11   -1    0    0    0    0  0.00000000000E+00  0.00000000000E+00  0.34996269501E-01  0.35000000000E-01  0.51099999109E-03 0.  1.
       11   -1    0    0    0    0 -0.00000000000E+00 -0.00000000000E+00 -0.34996269501E-01  0.35000000000E-01  0.51099999109E-03 0.  1.
       22    1    1    2    0    0  0.14152340242E-02  0.40938236224E-02 -0.14922443333E-01  0.15538390979E-01  0.00000000000E+00 0. -1.
       22    1    1    2    0    0 -0.14084588123E-02 -0.25991397195E-02 -0.19642827020E-01  0.19864036268E-01  0.00000000000E+00 0.  1.
       22    1    1    2    0    0 -0.67752119545E-05 -0.14946839029E-02  0.34565270353E-01  0.34597572753E-01  0.00000000000E+00 0.  1.
</event>
<event>
 5   0  0.1792268E+06  0.9118800E+02  0.7546771E-02  0.1180000E+00
      -11   -1    0    0    0    0  0.00000000000E+00  0.00000000000E+00  0.34996269501E-01  0.35000000000E-01  0.51099999109E-03 0.  1.
       11   -1    0    0    0    0 -0.00000000000E+00 -0.00000000000E+00 -0.34996269501E-01  0.35000000000E-01  0.51099999109E-03 0.  1.
       22    1    1    2    0    0 -0.16570487114E-05  0.18071884557E-05  0.16114270726E-04  0.16299738083E-04  0.00000000000E+00 0.  1.
       22    1    1    2    0    0 -0.13487906760E-02  0.38511666611E-03 -0.34971739574E-01  0.34999858857E-01  0.00000000000E+00 0.  1.
       22    1    1    2    0    0  0.13504477248E-02 -0.38692385457E-03  0.34955625303E-01  0.34983841405E-01  0.00000000000E+00 0.  1.
</event>
<event>
 5   0  0.1792268E+06  0.9118800E+02  0.7546771E-02  0.1180000E+00
      -11   -1    0    0    0    0  0.00000000000E+00  0.00000000000E+00  0.34996269501E-01  0.35000000000E-01  0.51099999109E-03 0. -1.
       11   -1    0    0    0    0 -0.00000000000E+00 -0.00000000000E+00 -0.34996269501E-01  0.35000000000E-01  0.51099999109E-03 0.  1.
       22    1    1    2    0    0  0.96835458215E-07 -0.34883906092E-07 -0.20619668095E-06  0.23045837825E-06  0.00000000000E+00 0.  1.
       22    1    1    2    0    0 -0.30747919157E-03  0.89809025173E-03 -0.34986907141E-01  0.34999782583E-01  0.00000000000E+00 0.  1.
       22    1    1    2    0    0  0.30738235611E-03 -0.89805536782E-03  0.34987113338E-01  0.34999986958E-01  0.00000000000E+00 0. -1.
</event>
<event>
 5   0  0.1792268E+06  0.9118800E+02  0.7546771E-02  0.1180000E+00
      -11   -1    0    0    0    0  0.00000000000E+00  0.00000000000E+00  0.34996269501E-01  0.35000000000E-01  0.51099999109E-03 0.  1.
       11   -1    0    0    0    0 -0.00000000000E+00 -0.00000000000E+00 -0.34996269501E-01  0.35000000000E-01  0.51099999109E-03 0. -1.
       22    1    1    2    0    0  0.44138764573E-02 -0.16365669938E-02 -0.34658859050E-01  0.34977094899E-01  0.00000000000E+00 0. -1.
       22    1    1    2    0    0 -0.44780408423E-02  0.16358239955E-02  0.34622411120E-01  0.34949107595E-01  0.00000000000E+00 0.  1.
       22    1    1    2    0    0  0.64164384989E-04  0.74299826459E-06  0.36447930002E-04  0.73797506387E-04  0.00000000000E+00 0. -1.
</event>
<event>
 5   0  0.1792268E+06  0.9118800E+02  0.7546771E-02  0.1180000E+00
      -11   -1    0    0    0    0  0.00000000000E+00  0.00000000000E+00  0.34996269501E-01  0.35000000000E-01  0.51099999109E-03 0.  1.
       11   -1    0    0    0    0 -0.00000000000E+00 -0.00000000000E+00 -0.34996269501E-01  0.35000000000E-01  0.51099999109E-03 0. -1.
       22    1    1    2    0    0 -0.12306708507E-01  0.11451946252E-01  0.30639275565E-01  0.34948066532E-01  0.00000000000E+00 0.  1.
       22    1    1    2    0    0  0.12354506308E-01 -0.11387551026E-01 -0.29812436661E-01  0.34221214533E-01  0.00000000000E+00 0. -1.
       22    1    1    2    0    0 -0.47797801576E-04 -0.64395226096E-04 -0.82683890376E-03  0.83071893427E-03  0.00000000000E+00 0.  1.
</event>
<event>
 5   0  0.1792268E+06  0.9118800E+02  0.7546771E-02  0.1180000E+00
      -11   -1    0    0    0    0  0.00000000000E+00  0.00000000000E+00  0.34996269501E-01  0.35000000000E-01  0.51099999109E-03 0.  1.
       11   -1    0    0    0    0 -0.00000000000E+00 -0.00000000000E+00 -0.34996269501E-01  0.35000000000E-01  0.51099999109E-03 0. -1.
       22    1    1    2    0    0 -0.79701640496E-02  0.24106306912E-01  0.22164361927E-01  0.33703063474E-01  0.00000000000E+00 0.  1.
       22    1    1    2    0    0  0.78321911583E-02 -0.24024249022E-01 -0.15527717244E-01  0.29658350632E-01  0.00000000000E+00 0. -1.
       22    1    1    2    0    0  0.13797289137E-03 -0.82057890092E-04 -0.66366446833E-02  0.66385858937E-02  0.00000000000E+00 0. -1.
</event>
<event>
 5   0  0.1792268E+06  0.9118800E+02  0.7546771E-02  0.1180000E+00
      -11   -1    0    0    0    0  0.00000000000E+00  0.00000000000E+00  0.34996269501E-01  0.35000000000E-01  0.51099999109E-03 0. -1.
       11   -1    0    0    0    0 -0.00000000000E+00 -0.00000000000E+00 -0.34996269501E-01  0.35000000000E-01  0.51099999109E-03 0.  1.
       22    1    1    2    0    0 -0.37245692668E-02 -0.15245093836E-01 -0.25122305692E-01  0.29621200948E-01  0.00000000000E+00 0.  1.
       22    1    1    2    0    0 -0.41287810966E-02  0.18680190142E-01  0.70714930727E-02  0.20396135696E-01  0.00000000000E+00 0.  1.
       22    1    1    2    0    0  0.78533503633E-02 -0.34350963057E-02  0.18050812620E-01  0.19982663356E-01  0.00000000000E+00 0. -1.
</event>
<event>
 5   0  0.1792268E+06  0.9118800E+02  0.7546771E-02  0.1180000E+00
      -11   -1    0    0    0    0  0.00000000000E+00  0.00000000000E+00  0.34996269501E-01  0.35000000000E-01  0.51099999109E-03 0. -1.
       11   -1    0    0    0    0 -0.00000000000E+00 -0.00000000000E+00 -0.34996269501E-01  0.35000000000E-01  0.51099999109E-03 0.  1.
       22    1    1    2    0    0 -0.93559843725E-02  0.10652559223E-01 -0.30202856526E-01  0.33365011673E-01  0.00000000000E+00 0.  1.
       22    1    1    2    0    0  0.84141548252E-03 -0.92082165310E-03  0.20324462949E-01  0.20362703325E-01  0.00000000000E+00 0. -1.
       22    1    1    2    0    0  0.85145688900E-02 -0.97317375703E-02  0.98783935770E-02  0.16272285002E-01  0.00000000000E+00 0. -1.
</event>
<event>
 5   0  0.1792268E+06  0.9118800E+02  0.7546771E-02  0.1180000E+00
      -11   -1    0    0    0    0  0.00000000000E+00  0.00000000000E+00  0.34996269501E-01  0.35000000000E-01  0.51099999109E-03 0.  1.
       11   -1    0    0    0    0 -0.00000000000E+00 -0.00000000000E+00 -0.34996269501E-01  0.35000000000E-01  0.51099999109E-03 0. -1.
       22    1    1    2    0    0  0.85443955337E-03  0.39285869280E-03  0.34904816197E-01  0.34917482707E-01  0.00000000000E+00 0.  1.
       22    1    1    2    0    0  0.26581711959E-04 -0.54876728311E-04  0.71218577595E-04  0.93755685243E-04  0.00000000000E+00 0. -1.
       22    1    1    2    0    0 -0.88102126533E-03 -0.33798196449E-03 -0.34976034774E-01  0.34988761607E-01  0.00000000000E+00 0. -1.
</event>
<event>
 5   0  0.1792268E+06  0.9118800E+02  0.7546771E-02  0.1180000E+00
      -11   -1    0    0    0    0  0.00000000000E+00  0.00000000000E+00  0.34996269501E-01  0.35000000000E-01  0.51099999109E-03 0. -1.
       11   -1    0    0    0    0 -0.00000000000E+00 -0.00000000000E+00 -0.34996269501E-01  0.35000000000E-01  0.51099999109E-03 0.  1.
       22    1    1    2    0    0 -0.11674075940E-01 -0.34127541677E-03 -0.32993856952E-01  0.34999930207E-01  0.00000000000E+00 0.  1.
       22    1    1    2    0    0 -0.97586202462E-07 -0.21454051147E-06  0.15123568785E-05  0.15306123042E-05  0.00000000000E+00 0. -1.
       22    1    1    2    0    0  0.11674173526E-01  0.34148995728E-03  0.32992344595E-01  0.34998539181E-01  0.00000000000E+00 0. -1.
</event>
<event>
 5   0  0.1792268E+06  0.9118800E+02  0.7546771E-02  0.1180000E+00
      -11   -1    0    0    0    0  0.00000000000E+00  0.00000000000E+00  0.34996269501E-01  0.35000000000E-01  0.51099999109E-03 0.  1.
       11   -1    0    0    0    0 -0.00000000000E+00 -0.00000000000E+00 -0.34996269501E-01  0.35000000000E-01  0.51099999109E-03 0. -1.
       22    1    1    2    0    0 -0.30342857459E-02  0.21282406491E-01  0.27619630560E-01  0.34999881546E-01  0.00000000000E+00 0.  1.
       22    1    1    2    0    0  0.30343460648E-02 -0.21282405497E-01 -0.27619752504E-01  0.34999982402E-01  0.00000000000E+00 0. -1.
       22    1    1    2    0    0 -0.60318876397E-07 -0.99388614356E-09  0.12194479660E-06  0.13605104952E-06  0.00000000000E+00 0.  1.
</event>
<event>
 5   0  0.1792268E+06  0.9118800E+02  0.7546771E-02  0.1180000E+00
      -11   -1    0    0    0    0  0.00000000000E+00  0.00000000000E+00  0.34996269501E-01  0.35000000000E-01  0.51099999109E-03 0.  1.
       11   -1    0    0    0    0 -0.00000000000E+00 -0.00000000000E+00 -0.34996269501E-01  0.35000000000E-01  0.51099999109E-03 0.  1.
       22    1    1    2    0    0 -0.23438871157E-01 -0.73995751832E-02  0.10294379567E-01  0.26647863792E-01  0.00000000000E+00 0. -1.
       22    1    1    2    0    0  0.50738154038E-03  0.29864317324E-03 -0.18099740428E-01  0.18109313276E-01  0.00000000000E+00 0.  1.
       22    1    1    2    0    0  0.22931489616E-01  0.71009320100E-02  0.78053608607E-02  0.25242822933E-01  0.00000000000E+00 0.  1.
</event>
<event>
 5   0  0.1792268E+06  0.9118800E+02  0.7546771E-02  0.1180000E+00
      -11   -1    0    0    0    0  0.00000000000E+00  0.00000000000E+00  0.34996269501E-01  0.35000000000E-01  0.51099999109E-03 0.  1.
       11   -1    0    0    0    0 -0.00000000000E+00 -0.00000000000E+00 -0.34996269501E-01  0.35000000000E-01  0.51099999109E-03 0. -1.
       22    1    1    2    0    0 -0.24109271791E-01 -0.10656200443E-01  0.22627450322E-01  0.34739215625E-01  0.00000000000E+00 0.  1.
       22    1    1    2    0    0  0.40722596375E-05 -0.22473008070E-05  0.31660894928E-03  0.31664311207E-03  0.00000000000E+00 0.  1.
       22    1    1    2    0    0  0.24105199531E-01  0.10658447744E-01 -0.22944059271E-01  0.34944141263E-01  0.00000000000E+00 0. -1.
</event>
<event>
 5   0  0.1792268E+06  0.9118800E+02  0.7546771E-02  0.1180000E+00
      -11   -1    0    0    0    0  0.00000000000E+00  0.00000000000E+00  0.34996269501E-01  0.35000000000E-01  0.51099999109E-03 0. -1.
       11   -1    0    0    0    0 -0.00000000000E+00 -0.00000000000E+00 -0.34996269501E-01  0.35000000000E-01  0.51099999109E-03 0.  1.
       22    1    1    2    0    0  0.62028220286E-02  0.24173853673E-02  0.34361039088E-01  0.34999996576E-01  0.00000000000E+00 0. -1.
       22    1    1    2    0    0 -0.62028214301E-02 -0.24173841018E-02 -0.34361042502E-01  0.34999999734E-01  0.00000000000E+00 0.  1.
       22    1    1    2    0    0 -0.59848759908E-09 -0.12654883374E-08  0.34139318968E-08  0.36897939149E-08  0.00000000000E+00 0. -1.
</event>
<event>
 5   0  0.1792268E+06  0.9118800E+02  0.7546771E-02  0.1180000E+00
      -11   -1    0    0    0    0  0.00000000000E+00  0.00000000000E+00  0.34996269501E-01  0.35000000000E-01  0.51099999109E-03 0. -1.
       11   -1    0    0    0    0 -0.00000000000E+00 -0.00000000000E+00 -0.34996269501E-01  0.35000000000E-01  0.51099999109E-03 0.  1.
       22    1    1    2    0    0  0.16272822606E-02  0.15548075824E-02 -0.34927559737E-01  0.34999998619E-01  0.00000000000E+00 0.  1.
       22    1    1    2    0    0 -0.24977422708E-06 -0.38774600599E-06  0.10261125414E-04  0.10271486206E-04  0.00000000000E+00 0.  1.
       22    1    1    2    0    0 -0.16270324864E-02 -0.15544198364E-02  0.34917298612E-01  0.34989729894E-01  0.00000000000E+00 0. -1.
</event>
<event>
 5   0  0.1792268E+06  0.9118800E+02  0.7546771E-02  0.1180000E+00
      -11   -1    0    0    0    0  0.00000000000E+00  0.00000000000E+00  0.34996269501E-01  0.35000000000E-01  0.51099999109E-03 0.  1.
       11   -1    0    0    0    0 -0.00000000000E+00 -0.00000000000E+00 -0.34996269501E-01  0.35000000000E-01  0.51099999109E-03 0. -1.
       22    1    1    2    0    0 -0.74244130370E-02  0.21353282822E-01  0.26690617798E-01  0.34978188556E-01  0.00000000000E+00 0.  1.
       22    1    1    2    0    0  0.97021487875E-04 -0.48648334869E-04 -0.22267496323E-04  0.11079562711E-03  0.00000000000E+00 0. -1.
       22    1    1    2    0    0  0.73273915491E-02 -0.21304634487E-01 -0.26668350302E-01  0.34911015817E-01  0.00000000000E+00 0. -1.
</event>
<event>
 5   0  0.1792268E+06  0.9118800E+02  0.7546771E-02  0.1180000E+00
      -11   -1    0    0    0    0  0.00000000000E+00  0.00000000000E+00  0.34996269501E-01  0.35000000000E-01  0.51099999109E-03 0.  1.
       11   -1    0    0    0    0 -0.00000000000E+00 -0.00000000000E+00 -0.34996269501E-01  0.35000000000E-01  0.51099999109E-03 0. -1.
       22    1    1    2    0    0  0.48493718267E-02  0.34012072096E-02  0.34487776512E-01  0.34992732765E-01  0.00000000000E+00 0.  1.
       22    1    1    2    0    0 -0.48547976312E-02 -0.33994293969E-02 -0.34493635261E-01  0.34999086471E-01  0.00000000000E+00 0. -1.
       22    1    1    2    0    0  0.54258045344E-05 -0.17778127278E-05  0.58587488983E-05  0.81807647316E-05  0.00000000000E+00 0. -1.
</event>
<event>
 5   0  0.1792268E+06  0.9118800E+02  0.7546771E-02  0.1180000E+00
      -11   -1    0    0    0    0  0.00000000000E+00  0.00000000000E+00  0.34996269501E-01  0.35000000000E-01  0.51099999109E-03 0.  1.
       11   -1    0    0    0    0 -0.00000000000E+00 -0.00000000000E+00 -0.34996269501E-01  0.35000000000E-01  0.51099999109E-03 0. -1.
       22    1    1    2    0    0  0.16464129060E-02  0.94657605324E-03 -0.34948145065E-01  0.34999707501E-01  0.00000000000E+00 0. -1.
       22    1    1    2    0    0 -0.16418278990E-02 -0.95555428985E-03  0.34729952119E-01  0.34781866785E-01  0.00000000000E+00 0.  1.
       22    1    1    2    0    0 -0.45850069473E-05  0.89782366055E-05  0.21819294564E-03  0.21842571402E-03  0.00000000000E+00 0. -1.
</event>
<event>
 5   0  0.1792268E+06  0.9118800E+02  0.7546771E-02  0.1180000E+00
      -11   -1    0    0    0    0  0.00000000000E+00  0.00000000000E+00  0.34996269501E-01  0.35000000000E-01  0.51099999109E-03 0. -1.
       11   -1    0    0    0    0 -0.00000000000E+00 -0.00000000000E+00 -0.34996269501E-01  0.35000000000E-01  0.51099999109E-03 0.  1.
       22    1    1    2    0    0 -0.63353159319E-02  0.33054571159E-01 -0.95759715128E-02  0.34992000985E-01  0.00000000000E+00 0.  1.
       22    1    1    2    0    0 -0.37128131454E-05  0.72958793958E-06 -0.10993520089E-04  0.11626468248E-04  0.00000000000E+00 0.  1.
       22    1    1    2    0    0  0.63390287451E-02 -0.33055300747E-01  0.95869650329E-02  0.34996372547E-01  0.00000000000E+00 0. -1.
</event>
<event>
 5   0  0.1792268E+06  0.9118800E+02  0.7546771E-02  0.1180000E+00
      -11   -1    0    0    0    0  0.00000000000E+00  0.00000000000E+00  0.34996269501E-01  0.35000000000E-01  0.51099999109E-03 0.  1.
       11   -1    0    0    0    0 -0.00000000000E+00 -0.00000000000E+00 -0.34996269501E-01  0.35000000000E-01  0.51099999109E-03 0. -1.
       22    1    1    2    0    0 -0.10618286965E-02 -0.21006375826E-02 -0.18263256775E-02  0.29791985355E-02  0.00000000000E+00 0.  1.
       22    1    1    2    0    0 -0.94023682547E-03  0.20677705403E-03 -0.32534948203E-01  0.32549188263E-01  0.00000000000E+00 0. -1.
       22    1    1    2    0    0  0.20020655219E-02  0.18938605285E-02  0.34361273880E-01  0.34471613201E-01  0.00000000000E+00 0.  1.
</event>
<event>
 5   0  0.1792268E+06  0.9118800E+02  0.7546771E-02  0.1180000E+00
      -11   -1    0    0    0    0  0.00000000000E+00  0.00000000000E+00  0.34996269501E-01  0.35000000000E-01  0.51099999109E-03 0. -1.
       11   -1    0    0    0    0 -0.00000000000E+00 -0.00000000000E+00 -0.34996269501E-01  0.35000000000E-01  0.51099999109E-03 0.  1.
       22    1    1    2    0    0  0.51294698984E-03 -0.29771357950E-02  0.34869327561E-01  0.34999949382E-01  0.00000000000E+00 0. -1.
       22    1    1    2    0    0  0.86656090251E-10  0.33668672827E-07  0.46700804257E-07  0.57572147411E-07  0.00000000000E+00 0. -1.
       22    1    1    2    0    0 -0.51294707649E-03  0.29771021263E-02 -0.34869374262E-01  0.34999993046E-01  0.00000000000E+00 0.  1.
</event>
<event>
 5   0  0.1792268E+06  0.9118800E+02  0.7546771E-02  0.1180000E+00
      -11   -1    0    0    0    0  0.00000000000E+00  0.00000000000E+00  0.34996269501E-01  0.35000000000E-01  0.51099999109E-03 0.  1.
       11   -1    0    0    0    0 -0.00000000000E+00 -0.00000000000E+00 -0.34996269501E-01  0.35000000000E-01  0.51099999109E-03 0. -1.
       22    1    1    2    0    0 -0.63881821913E-03  0.55662680259E-03  0.34975305656E-01  0.34985567422E-01  0.00000000000E+00 0.  1.
       22    1    1    2    0    0  0.72705595045E-03 -0.67389127394E-03 -0.34555469188E-01  0.34569686007E-01  0.00000000000E+00 0. -1.
       22    1    1    2    0    0 -0.88237731325E-04  0.11726447135E-03 -0.41983646724E-03  0.44474657131E-03  0.00000000000E+00 0.  1.
</event>
<event>
 5   0  0.1792268E+06  0.9118800E+02  0.7546771E-02  0.1180000E+00
      -11   -1    0    0    0    0  0.00000000000E+00  0.00000000000E+00  0.34996269501E-01  0.35000000000E-01  0.51099999109E-03 0. -1.
       11   -1    0    0    0    0 -0.00000000000E+00 -0.00000000000E+00 -0.34996269501E-01  0.35000000000E-01  0.51099999109E-03 0.  1.
       22    1    1    2    0    0 -0.32540624900E-05  0.32174993504E-06  0.10980025377E-05  0.34493557779E-05  0.00000000000E+00 0. -1.
       22    1    1    2    0    0 -0.42278767901E-03  0.12677649050E-03 -0.34996020592E-01  0.34998803965E-01  0.00000000000E+00 0.  1.
       22    1    1    2    0    0  0.42604174150E-03 -0.12709824044E-03  0.34994922590E-01  0.34997746679E-01  0.00000000000E+00 0. -1.
</event>
<event>
 5   0  0.1792268E+06  0.9118800E+02  0.7546771E-02  0.1180000E+00
      -11   -1    0    0    0    0  0.00000000000E+00  0.00000000000E+00  0.34996269501E-01  0.35000000000E-01  0.51099999109E-03 0. -1.
       11   -1    0    0    0    0 -0.00000000000E+00 -0.00000000000E+00 -0.34996269501E-01  0.35000000000E-01  0.51099999109E-03 0.  1.
       22    1    1    2    0    0 -0.15887036036E-02 -0.31734055507E-02 -0.34812980293E-01  0.34993400503E-01  0.00000000000E+00 0.  1.
       22    1    1    2    0    0  0.15802860307E-02  0.32425151766E-02  0.34166626366E-01  0.34356506892E-01  0.00000000000E+00 0. -1.
       22    1    1    2    0    0  0.84175729724E-05 -0.69109625894E-04  0.64635392666E-03  0.65009260450E-03  0.00000000000E+00 0.  1.
</event>
<event>
 5   0  0.1792268E+06  0.9118800E+02  0.7546771E-02  0.1180000E+00
      -11   -1    0    0    0    0  0.00000000000E+00  0.00000000000E+00  0.34996269501E-01  0.35000000000E-01  0.51099999109E-03 0. -1.
       11   -1    0    0    0    0 -0.00000000000E+00 -0.00000000000E+00 -0.34996269501E-01  0.35000000000E-01  0.51099999109E-03 0.  1.
       22    1    1    2    0    0  0.26819575537E-03  0.27609707522E-02 -0.34889895431E-01  0.34999995595E-01  0.00000000000E+00 0.  1.
       22    1    1    2    0    0 -0.83074760444E-07 -0.11017322086E-07  0.38055526835E-06  0.38967308026E-06  0.00000000000E+00 0.  1.
       22    1    1    2    0    0 -0.26811268061E-03 -0.27609597349E-02  0.34889514876E-01  0.34999614732E-01  0.00000000000E+00 0. -1.
</event>
<event>
 5   0  0.1792268E+06  0.9118800E+02  0.7546771E-02  0.1180000E+00
      -11   -1    0    0    0    0  0.00000000000E+00  0.00000000000E+00  0.34996269501E-01  0.35000000000E-01  0.51099999109E-03 0.  1.
       11   -1    0    0    0    0 -0.00000000000E+00 -0.00000000000E+00 -0.34996269501E-01  0.35000000000E-01  0.51099999109E-03 0. -1.
       22    1    1    2    0    0  0.60188801792E-03 -0.15879619288E-04 -0.11507226600E-03  0.61299508548E-03  0.00000000000E+00 0.  1.
       22    1    1    2    0    0 -0.35404777749E-02  0.35385963995E-02 -0.34302118189E-01  0.34665428883E-01  0.00000000000E+00 0. -1.
       22    1    1    2    0    0  0.29385897570E-02 -0.35227167802E-02  0.34417190455E-01  0.34721576032E-01  0.00000000000E+00 0.  1.
</event>
<event>
 5   0  0.1792268E+06  0.9118800E+02  0.7546771E-02  0.1180000E+00
      -11   -1    0    0    0    0  0.00000000000E+00  0.00000000000E+00  0.34996269501E-01  0.35000000000E-01  0.51099999109E-03 0.  1.
       11   -1    0    0    0    0 -0.00000000000E+00 -0.00000000000E+00 -0.34996269501E-01  0.35000000000E-01  0.51099999109E-03 0. -1.
       22    1    1    2    0    0 -0.72291519941E-04 -0.75881786881E-03  0.34991338434E-01  0.34999639942E-01  0.00000000000E+00 0.  1.
       22    1    1    2    0    0  0.72549280737E-04  0.75856178116E-03 -0.34991610009E-01  0.34999906435E-01  0.00000000000E+00 0. -1.
       22    1    1    2    0    0 -0.25776079619E-06  0.25608765345E-06  0.27157498316E-06  0.45362372710E-06  0.00000000000E+00 0.  1.
</event>
<event>
 5   0  0.1792268E+06  0.9118800E+02  0.7546771E-02  0.1180000E+00
      -11   -1    0    0    0    0  0.00000000000E+00  0.00000000000E+00  0.34996269501E-01  0.35000000000E-01  0.51099999109E-03 0.  1.
       11   -1    0    0    0    0 -0.00000000000E+00 -0.00000000000E+00 -0.34996269501E-01  0.35000000000E-01  0.51099999109E-03 0.  1.
       22    1    1    2    0    0 -0.32151845028E-05  0.61364781003E-05  0.12614584524E-04  0.14391716978E-04  0.00000000000E+00 0. -1.
       22    1    1    2    0    0  0.32153952428E-05 -0.61368803172E-05  0.34987352165E-01  0.34986497038E-01  0.00000000000E+00 0.  1.
       22    1    1    2    0    0 -0.21074005575E-09  0.40221696014E-09 -0.34999966749E-01  0.34999111245E-01  0.00000000000E+00 0.  1.
</event>
<event>
 5   0  0.1792268E+06  0.9118800E+02  0.7546771E-02  0.1180000E+00
      -11   -1    0    0    0    0  0.00000000000E+00  0.00000000000E+00  0.34996269501E-01  0.35000000000E-01  0.51099999109E-03 0. -1.
       11   -1    0    0    0    0 -0.00000000000E+00 -0.00000000000E+00 -0.34996269501E-01  0.35000000000E-01  0.51099999109E-03 0. -1.
       22    1    1    2    0    0 -0.55873218776E-03 -0.48241377331E-03 -0.34991772172E-01  0.34999557490E-01  0.00000000000E+00 0. -1.
       22    1    1    2    0    0  0.55727083585E-03  0.48305358238E-03  0.34990806845E-01  0.34998577902E-01  0.00000000000E+00 0. -1.
       22    1    1    2    0    0  0.14613519116E-05 -0.63980907088E-06  0.96532781101E-06  0.18646079586E-05  0.00000000000E+00 0.  1.
</event>
<event>
 5   0  0.1792268E+06  0.9118800E+02  0.7546771E-02  0.1180000E+00
      -11   -1    0    0    0    0  0.00000000000E+00  0.00000000000E+00  0.34996269501E-01  0.35000000000E-01  0.51099999109E-03 0. -1.
       11   -1    0    0    0    0 -0.00000000000E+00 -0.00000000000E+00 -0.34996269501E-01  0.35000000000E-01  0.51099999109E-03 0.  1.
       22    1    1    2    0    0 -0.10451397107E-02 -0.74972287199E-04  0.29451968692E-01  0.29470602262E-01  0.00000000000E+00 0. -1.
       22    1    1    2    0    0  0.23067768576E-03 -0.20111615674E-02 -0.34733626618E-01  0.34792568187E-01  0.00000000000E+00 0.  1.
       22    1    1    2    0    0  0.81446202490E-03  0.20861338546E-02  0.52816579259E-02  0.57368295508E-02  0.00000000000E+00 0. -1.
</event>
<event>
 5   0  0.1792268E+06  0.9118800E+02  0.7546771E-02  0.1180000E+00
      -11   -1    0    0    0    0  0.00000000000E+00  0.00000000000E+00  0.34996269501E-01  0.35000000000E-01  0.51099999109E-03 0.  1.
       11   -1    0    0    0    0 -0.00000000000E+00 -0.00000000000E+00 -0.34996269501E-01  0.35000000000E-01  0.51099999109E-03 0. -1.
       22    1    1    2    0    0  0.13815905502E-02  0.93193260414E-03  0.34854561663E-01  0.34894380056E-01  0.00000000000E+00 0.  1.
       22    1    1    2    0    0 -0.43201640753E-04 -0.17615017197E-04  0.10165195939E-03  0.11184717897E-03  0.00000000000E+00 0. -1.
       22    1    1    2    0    0 -0.13383889094E-02 -0.91431758695E-03 -0.34956213622E-01  0.34993772765E-01  0.00000000000E+00 0. -1.
</event>
<event>
 5   0  0.1792268E+06  0.9118800E+02  0.7546771E-02  0.1180000E+00
      -11   -1    0    0    0    0  0.00000000000E+00  0.00000000000E+00  0.34996269501E-01  0.35000000000E-01  0.51099999109E-03 0.  1.
       11   -1    0    0    0    0 -0.00000000000E+00 -0.00000000000E+00 -0.34996269501E-01  0.35000000000E-01  0.51099999109E-03 0. -1.
       22    1    1    2    0    0 -0.43442129164E-03 -0.18602686656E-02 -0.34947817302E-01  0.34999989365E-01  0.00000000000E+00 0. -1.
       22    1    1    2    0    0 -0.74378472526E-07 -0.12098953866E-06  0.78490589292E-06  0.79765148178E-06  0.00000000000E+00 0. -1.
       22    1    1    2    0    0  0.43449567012E-03  0.18603896552E-02  0.34947032396E-01  0.34999212983E-01  0.00000000000E+00 0.  1.
</event>
<event>
 5   0  0.1792268E+06  0.9118800E+02  0.7546771E-02  0.1180000E+00
      -11   -1    0    0    0    0  0.00000000000E+00  0.00000000000E+00  0.34996269501E-01  0.35000000000E-01  0.51099999109E-03 0. -1.
       11   -1    0    0    0    0 -0.00000000000E+00 -0.00000000000E+00 -0.34996269501E-01  0.35000000000E-01  0.51099999109E-03 0.  1.
       22    1    1    2    0    0  0.16898528282E-08  0.15756183211E-08  0.15072299134E-08  0.27586079254E-08  0.00000000000E+00 0.  1.
       22    1    1    2    0    0 -0.14242055021E-01  0.64932050068E-02  0.31304984070E-01  0.34999998144E-01  0.00000000000E+00 0. -1.
       22    1    1    2    0    0  0.14242053331E-01 -0.64932065824E-02 -0.31304985577E-01  0.34999999097E-01  0.00000000000E+00 0.  1.
</event>
<event>
 5   0  0.1792268E+06  0.9118800E+02  0.7546771E-02  0.1180000E+00
      -11   -1    0    0    0    0  0.00000000000E+00  0.00000000000E+00  0.34996269501E-01  0.35000000000E-01  0.51099999109E-03 0.  1.
       11   -1    0    0    0    0 -0.00000000000E+00 -0.00000000000E+00 -0.34996269501E-01  0.35000000000E-01  0.51099999109E-03 0. -1.
       22    1    1    2    0    0 -0.12285126310E-01 -0.53747116727E-02  0.32179395495E-01  0.34861516726E-01  0.00000000000E+00 0.  1.
       22    1    1    2    0    0  0.12292243608E-01  0.54418914154E-02 -0.32308037858E-01  0.34993181412E-01  0.00000000000E+00 0. -1.
       22    1    1    2    0    0 -0.71172981681E-05 -0.67179742704E-04  0.12864236219E-03  0.14530186205E-03  0.00000000000E+00 0. -1.
</event>
<event>
 5   0  0.1792268E+06  0.9118800E+02  0.7546771E-02  0.1180000E+00
      -11   -1    0    0    0    0  0.00000000000E+00  0.00000000000E+00  0.34996269501E-01  0.35000000000E-01  0.51099999109E-03 0.  1.
       11   -1    0    0    0    0 -0.00000000000E+00 -0.00000000000E+00 -0.34996269501E-01  0.35000000000E-01  0.51099999109E-03 0. -1.
       22    1    1    2    0    0  0.20717550790E-05 -0.12130338333E-05 -0.66752252560E-08  0.24007633675E-05  0.00000000000E+00 0. -1.
       22    1    1    2    0    0 -0.31005426444E-02 -0.56319294855E-03  0.34856726667E-01  0.34998884910E-01  0.00000000000E+00 0.  1.
       22    1    1    2    0    0  0.30984708893E-02  0.56440598238E-03 -0.34856719992E-01  0.34998714327E-01  0.00000000000E+00 0. -1.
</event>
<event>
 5   0  0.1792268E+06  0.9118800E+02  0.7546771E-02  0.1180000E+00
      -11   -1    0    0    0    0  0.00000000000E+00  0.00000000000E+00  0.34996269501E-01  0.35000000000E-01  0.51099999109E-03 0.  1.
       11   -1    0    0    0    0 -0.00000000000E+00 -0.00000000000E+00 -0.34996269501E-01  0.35000000000E-01  0.51099999109E-03 0.  1.
       22    1    1    2    0    0 -0.45233938631E-02 -0.61527759809E-02  0.34155974414E-01  0.34999261885E-01  0.00000000000E+00 0.  1.
       22    1    1    2    0    0  0.45233706559E-02  0.61527380397E-02 -0.34156725758E-01  0.34999985456E-01  0.00000000000E+00 0.  1.
       22    1    1    2    0    0  0.23207196825E-07  0.37941182323E-07  0.75134335729E-06  0.75265858650E-06  0.00000000000E+00 0.  1.
</event>
<event>
 5   0  0.1792268E+06  0.9118800E+02  0.7546771E-02  0.1180000E+00
      -11   -1    0    0    0    0  0.00000000000E+00  0.00000000000E+00  0.34996269501E-01  0.35000000000E-01  0.51099999109E-03 0.  1.
       11   -1    0    0    0    0 -0.00000000000E+00 -0.00000000000E+00 -0.34996269501E-01  0.35000000000E-01  0.51099999109E-03 0. -1.
       22    1    1    2    0    0 -0.12055654436E-02 -0.36193924050E-03 -0.34967838843E-01  0.34990486442E-01  0.00000000000E+00 0. -1.
       22    1    1    2    0    0  0.11917496060E-03 -0.58091598279E-04  0.38728995833E-03  0.40935414600E-03  0.00000000000E+00 0. -1.
       22    1    1    2    0    0  0.10863904830E-02  0.42003083878E-03  0.34580548885E-01  0.34600159412E-01  0.00000000000E+00 0.  1.
</event>
<event>
 5   0  0.1792268E+06  0.9118800E+02  0.7546771E-02  0.1180000E+00
      -11   -1    0    0    0    0  0.00000000000E+00  0.00000000000E+00  0.34996269501E-01  0.35000000000E-01  0.51099999109E-03 0. -1.
       11   -1    0    0    0    0 -0.00000000000E+00 -0.00000000000E+00 -0.34996269501E-01  0.35000000000E-01  0.51099999109E-03 0.  1.
       22    1    1    2    0    0  0.64533995037E-03 -0.19135590824E-02 -0.34941639412E-01  0.34999947669E-01  0.00000000000E+00 0.  1.
       22    1    1    2    0    0 -0.64426611776E-03  0.19121342206E-02  0.34933286277E-01  0.34991510774E-01  0.00000000000E+00 0. -1.
       22    1    1    2    0    0 -0.10738326070E-05  0.14248617736E-05  0.83531347872E-05  0.85415577218E-05  0.00000000000E+00 0.  1.
</event>
<event>
 5   0  0.1792268E+06  0.9118800E+02  0.7546771E-02  0.1180000E+00
      -11   -1    0    0    0    0  0.00000000000E+00  0.00000000000E+00  0.34996269501E-01  0.35000000000E-01  0.51099999109E-03 0. -1.
       11   -1    0    0    0    0 -0.00000000000E+00 -0.00000000000E+00 -0.34996269501E-01  0.35000000000E-01  0.51099999109E-03 0.  1.
       22    1    1    2    0    0 -0.45940001833E-08 -0.74394863720E-07  0.18591772248E-06  0.20030252149E-06  0.00000000000E+00 0.  1.
       22    1    1    2    0    0 -0.10875170308E-01 -0.55107019944E-02 -0.32807948174E-01  0.34999980415E-01  0.00000000000E+00 0.  1.
       22    1    1    2    0    0  0.10875174902E-01  0.55107763893E-02  0.32807762256E-01  0.34999819282E-01  0.00000000000E+00 0. -1.
</event>
<event>
 5   0  0.1792268E+06  0.9118800E+02  0.7546771E-02  0.1180000E+00
      -11   -1    0    0    0    0  0.00000000000E+00  0.00000000000E+00  0.34996269501E-01  0.35000000000E-01  0.51099999109E-03 0.  1.
       11   -1    0    0    0    0 -0.00000000000E+00 -0.00000000000E+00 -0.34996269501E-01  0.35000000000E-01  0.51099999109E-03 0.  1.
       22    1    1    2    0    0 -0.16283925692E-06 -0.45460635636E-06  0.31561786566E-06  0.57688664394E-06  0.00000000000E+00 0.  1.
       22    1    1    2    0    0  0.73423242048E-03 -0.38831814080E-03 -0.34990011535E-01  0.34999868506E-01  0.00000000000E+00 0.  1.
       22    1    1    2    0    0 -0.73406958122E-03  0.38877274716E-03  0.34989695917E-01  0.34999554608E-01  0.00000000000E+00 0.  1.
</event>
<event>
 5   0  0.1792268E+06  0.9118800E+02  0.7546771E-02  0.1180000E+00
      -11   -1    0    0    0    0  0.00000000000E+00  0.00000000000E+00  0.34996269501E-01  0.35000000000E-01  0.51099999109E-03 0. -1.
       11   -1    0    0    0    0 -0.00000000000E+00 -0.00000000000E+00 -0.34996269501E-01  0.35000000000E-01  0.51099999109E-03 0.  1.
       22    1    1    2    0    0 -0.20247367891E-07  0.17676277899E-07  0.45782412684E-06  0.45861240478E-06  0.00000000000E+00 0. -1.
       22    1    1    2    0    0  0.91231120416E-02  0.10863668082E-01 -0.31996064325E-01  0.34999979855E-01  0.00000000000E+00 0.  1.
       22    1    1    2    0    0 -0.91230917942E-02 -0.10863685759E-01  0.31995606501E-01  0.34999561533E-01  0.00000000000E+00 0. -1.
</event>
<event>
 5   0  0.1792268E+06  0.9118800E+02  0.7546771E-02  0.1180000E+00
      -11   -1    0    0    0    0  0.00000000000E+00  0.00000000000E+00  0.34996269501E-01  0.35000000000E-01  0.51099999109E-03 0.  1.
       11   -1    0    0    0    0 -0.00000000000E+00 -0.00000000000E+00 -0.34996269501E-01  0.35000000000E-01  0.51099999109E-03 0. -1.
       22    1    1    2    0    0  0.11445062284E-02  0.14583914717E-02  0.34950865345E-01  0.34999996979E-01  0.00000000000E+00 0.  1.
       22    1    1    2    0    0 -0.11445077483E-02 -0.14583922890E-02 -0.34950868076E-01  0.34999999790E-01  0.00000000000E+00 0. -1.
       22    1    1    2    0    0  0.15199746739E-08  0.81728329209E-09  0.27311308820E-08  0.32306889178E-08  0.00000000000E+00 0.  1.
</event>
<event>
 5   0  0.1792268E+06  0.9118800E+02  0.7546771E-02  0.1180000E+00
      -11   -1    0    0    0    0  0.00000000000E+00  0.00000000000E+00  0.34996269501E-01  0.35000000000E-01  0.51099999109E-03 0. -1.
       11   -1    0    0    0    0 -0.00000000000E+00 -0.00000000000E+00 -0.34996269501E-01  0.35000000000E-01  0.51099999109E-03 0.  1.
       22    1    1    2    0    0  0.11009296092E-02  0.79667741166E-02 -0.34063442090E-01  0.34999994612E-01  0.00000000000E+00 0.  1.
       22    1    1    2    0    0  0.45806279194E-08  0.67711290151E-08 -0.89097133775E-09  0.82233916482E-08  0.00000000000E+00 0.  1.
       22    1    1    2    0    0 -0.11009341898E-02 -0.79667808877E-02  0.34063442981E-01  0.34999997165E-01  0.00000000000E+00 0. -1.
</event>
<event>
 5   0  0.1792268E+06  0.9118800E+02  0.7546771E-02  0.1180000E+00
      -11   -1    0    0    0    0  0.00000000000E+00  0.00000000000E+00  0.34996269501E-01  0.35000000000E-01  0.51099999109E-03 0. -1.
       11   -1    0    0    0    0 -0.00000000000E+00 -0.00000000000E+00 -0.34996269501E-01  0.35000000000E-01  0.51099999109E-03 0.  1.
       22    1    1    2    0    0  0.75184190093E-02  0.28830764006E-01 -0.17822208674E-01  0.34718448980E-01  0.00000000000E+00 0.  1.
       22    1    1    2    0    0  0.32832348099E-03 -0.12077796952E-03  0.10747226030E-02  0.11302266584E-02  0.00000000000E+00 0. -1.
       22    1    1    2    0    0 -0.78467424903E-02 -0.28709986037E-01  0.16747486071E-01  0.34151324361E-01  0.00000000000E+00 0. -1.
</event>
<event>
 5   0  0.1792268E+06  0.9118800E+02  0.7546771E-02  0.1180000E+00
      -11   -1    0    0    0    0  0.00000000000E+00  0.00000000000E+00  0.34996269501E-01  0.35000000000E-01  0.51099999109E-03 0. -1.
       11   -1    0    0    0    0 -0.00000000000E+00 -0.00000000000E+00 -0.34996269501E-01  0.35000000000E-01  0.51099999109E-03 0. -1.
       22    1    1    2    0    0 -0.41854233551E-06  0.14618157162E-06  0.62101426913E-05  0.62259472359E-05  0.00000000000E+00 0.  1.
       22    1    1    2    0    0  0.41856987413E-06 -0.14619118985E-06  0.34994655978E-01  0.34993781879E-01  0.00000000000E+00 0. -1.
       22    1    1    2    0    0 -0.27538614686E-10  0.96182336490E-11 -0.35000866121E-01  0.34999992174E-01  0.00000000000E+00 0. -1.
</event>
<event>
 5   0  0.1792268E+06  0.9118800E+02  0.7546771E-02  0.1180000E+00
      -11   -1    0    0    0    0  0.00000000000E+00  0.00000000000E+00  0.34996269501E-01  0.35000000000E-01  0.51099999109E-03 0.  1.
       11   -1    0    0    0    0 -0.00000000000E+00 -0.00000000000E+00 -0.34996269501E-01  0.35000000000E-01  0.51099999109E-03 0. -1.
       22    1    1    2    0    0 -0.19502200329E-01 -0.14639268930E-01 -0.25060883232E-01  0.34967011323E-01  0.00000000000E+00 0. -1.
       22    1    1    2    0    0 -0.27899171865E-04  0.17884356111E-04 -0.23824725698E-04  0.40814599580E-04  0.00000000000E+00 0. -1.
       22    1    1    2    0    0  0.19530099501E-01  0.14621384574E-01  0.25084707957E-01  0.34992174078E-01  0.00000000000E+00 0.  1.
</event>
<event>
 5   0  0.1792268E+06  0.9118800E+02  0.7546771E-02  0.1180000E+00
      -11   -1    0    0    0    0  0.00000000000E+00  0.00000000000E+00  0.34996269501E-01  0.35000000000E-01  0.51099999109E-03 0. -1.
       11   -1    0    0    0    0 -0.00000000000E+00 -0.00000000000E+00 -0.34996269501E-01  0.35000000000E-01  0.51099999109E-03 0.  1.
       22    1    1    2    0    0  0.90533894175E-05  0.80006904920E-04 -0.99148859884E-04  0.12772456737E-03  0.00000000000E+00 0. -1.
       22    1    1    2    0    0  0.11381907736E-01 -0.26335975161E-02 -0.32876920472E-01  0.34890909408E-01  0.00000000000E+00 0.  1.
       22    1    1    2    0    0 -0.11390961126E-01  0.25535906111E-02  0.32976069332E-01  0.34981366025E-01  0.00000000000E+00 0. -1.
</event>
<event>
 5   0  0.1792268E+06  0.9118800E+02  0.7546771E-02  0.1180000E+00
      -11   -1    0    0    0    0  0.00000000000E+00  0.00000000000E+00  0.34996269501E-01  0.35000000000E-01  0.51099999109E-03 0. -1.
       11   -1    0    0    0    0 -0.00000000000E+00 -0.00000000000E+00 -0.34996269501E-01  0.35000000000E-01  0.51099999109E-03 0.  1.
       22    1    1    2    0    0 -0.12719398424E-03 -0.33304337107E-04  0.50123631711E-03  0.51819430148E-03  0.00000000000E+00 0.  1.
       22    1    1    2    0    0  0.16693078929E-01 -0.71346366988E-02  0.29400984250E-01  0.34554012789E-01  0.00000000000E+00 0. -1.
       22    1    1    2    0    0 -0.16565884944E-01  0.71679410359E-02 -0.29902220567E-01  0.34927792910E-01  0.00000000000E+00 0.  1.
</event>
<event>
 5   0  0.1792268E+06  0.9118800E+02  0.7546771E-02  0.1180000E+00
      -11   -1    0    0    0    0  0.00000000000E+00  0.00000000000E+00  0.34996269501E-01  0.35000000000E-01  0.51099999109E-03 0.  1.
       11   -1    0    0    0    0 -0.00000000000E+00 -0.00000000000E+00 -0.34996269501E-01  0.35000000000E-01  0.51099999109E-03 0.  1.
       22    1    1    2    0    0  0.12946776927E-05 -0.10672082009E-05  0.34999395982E-01  0.34996964822E-01  0.00000000000E+00 0.  1.
       22    1    1    2    0    0 -0.12945637217E-05  0.10671142541E-05  0.28032610270E-05  0.32669405330E-05  0.00000000000E+00 0. -1.
       22    1    1    2    0    0 -0.11397099301E-09  0.93946763028E-10 -0.35002199243E-01  0.34999768237E-01  0.00000000000E+00 0.  1.
</event>
<event>
 5   0  0.1792268E+06  0.9118800E+02  0.7546771E-02  0.1180000E+00
      -11   -1    0    0    0    0  0.00000000000E+00  0.00000000000E+00  0.34996269501E-01  0.35000000000E-01  0.51099999109E-03 0.  1.
       11   -1    0    0    0    0 -0.00000000000E+00 -0.00000000000E+00 -0.34996269501E-01  0.35000000000E-01  0.51099999109E-03 0. -1.
       22    1    1    2    0    0 -0.28643135058E-02  0.57844386833E-04 -0.34119836903E-01  0.34239902279E-01  0.00000000000E+00 0. -1.
       22    1    1    2    0    0 -0.40043749080E-03  0.34635924180E-03  0.31629957108E-01  0.31634387959E-01  0.00000000000E+00 0.  1.
       22    1    1    2    0    0  0.32647509966E-02 -0.40420362863E-03  0.24898797949E-02  0.41257097615E-02  0.00000000000E+00 0.  1.
</event>
<event>
 5   0  0.1792268E+06  0.9118800E+02  0.7546771E-02  0.1180000E+00
      -11   -1    0    0    0    0  0.00000000000E+00  0.00000000000E+00  0.34996269501E-01  0.35000000000E-01  0.51099999109E-03 0.  1.
       11   -1    0    0    0    0 -0.00000000000E+00 -0.00000000000E+00 -0.34996269501E-01  0.35000000000E-01  0.51099999109E-03 0. -1.
       22    1    1    2    0    0 -0.20854080813E-01 -0.63788846635E-03  0.27883840001E-01  0.34825394778E-01  0.00000000000E+00 0.  1.
       22    1    1    2    0    0  0.43618673316E-03 -0.45733425105E-04  0.17009954977E-03  0.47040861938E-03  0.00000000000E+00 0.  1.
       22    1    1    2    0    0  0.20417894080E-01  0.68362189145E-03 -0.28053939550E-01  0.34704196603E-01  0.00000000000E+00 0. -1.
</event>
<event>
 5   0  0.1792268E+06  0.9118800E+02  0.7546771E-02  0.1180000E+00
      -11   -1    0    0    0    0  0.00000000000E+00  0.00000000000E+00  0.34996269501E-01  0.35000000000E-01  0.51099999109E-03 0. -1.
       11   -1    0    0    0    0 -0.00000000000E+00 -0.00000000000E+00 -0.34996269501E-01  0.35000000000E-01  0.51099999109E-03 0.  1.
       22    1    1    2    0    0 -0.63748592736E-02  0.13701792872E-01  0.31533791738E-01  0.34967956475E-01  0.00000000000E+00 0. -1.
       22    1    1    2    0    0  0.69985817502E-04  0.78351226352E-04 -0.18862205808E-03  0.21590555833E-03  0.00000000000E+00 0.  1.
       22    1    1    2    0    0  0.63048734561E-02 -0.13780144098E-01 -0.31345169680E-01  0.34816137967E-01  0.00000000000E+00 0.  1.
</event>
<event>
 5   0  0.1792268E+06  0.9118800E+02  0.7546771E-02  0.1180000E+00
      -11   -1    0    0    0    0  0.00000000000E+00  0.00000000000E+00  0.34996269501E-01  0.35000000000E-01  0.51099999109E-03 0. -1.
       11   -1    0    0    0    0 -0.00000000000E+00 -0.00000000000E+00 -0.34996269501E-01  0.35000000000E-01  0.51099999109E-03 0.  1.
       22    1    1    2    0    0 -0.19960243751E-07 -0.35188625687E-08  0.11449082840E-07  0.23278213468E-07  0.00000000000E+00 0. -1.
       22    1    1    2    0    0 -0.62725810371E-02  0.78386774639E-02 -0.33529231042E-01  0.34999992450E-01  0.00000000000E+00 0.  1.
       22    1    1    2    0    0  0.62726009973E-02 -0.78386739451E-02  0.33529219593E-01  0.34999984271E-01  0.00000000000E+00 0. -1.
</event>
<event>
 5   0  0.1792268E+06  0.9118800E+02  0.7546771E-02  0.1180000E+00
      -11   -1    0    0    0    0  0.00000000000E+00  0.00000000000E+00  0.34996269501E-01  0.35000000000E-01  0.51099999109E-03 0. -1.
       11   -1    0    0    0    0 -0.00000000000E+00 -0.00000000000E+00 -0.34996269501E-01  0.35000000000E-01  0.51099999109E-03 0. -1.
       22    1    1    2    0    0  0.21264069262E-05  0.58065996472E-06  0.20973561915E-04  0.21089074703E-04  0.00000000000E+00 0.  1.
       22    1    1    2    0    0 -0.75105769828E-03 -0.27278255244E-03  0.34969868392E-01  0.34978996460E-01  0.00000000000E+00 0. -1.
       22    1    1    2    0    0  0.74893129136E-03  0.27220189248E-03 -0.34990841954E-01  0.34999914465E-01  0.00000000000E+00 0. -1.
</event>
<event>
 5   0  0.1792268E+06  0.9118800E+02  0.7546771E-02  0.1180000E+00
      -11   -1    0    0    0    0  0.00000000000E+00  0.00000000000E+00  0.34996269501E-01  0.35000000000E-01  0.51099999109E-03 0. -1.
       11   -1    0    0    0    0 -0.00000000000E+00 -0.00000000000E+00 -0.34996269501E-01  0.35000000000E-01  0.51099999109E-03 0.  1.
       22    1    1    2    0    0  0.51165394432E-02 -0.99058152380E-02  0.31646451336E-01  0.33552973543E-01  0.00000000000E+00 0. -1.
       22    1    1    2    0    0 -0.61793812128E-02  0.10080822694E-01 -0.12267534401E-01  0.17038196461E-01  0.00000000000E+00 0.  1.
       22    1    1    2    0    0  0.10628417697E-02 -0.17500745581E-03 -0.19378916935E-01  0.19408829996E-01  0.00000000000E+00 0.  1.
</event>
<event>
 5   0  0.1792268E+06  0.9118800E+02  0.7546771E-02  0.1180000E+00
      -11   -1    0    0    0    0  0.00000000000E+00  0.00000000000E+00  0.34996269501E-01  0.35000000000E-01  0.51099999109E-03 0. -1.
       11   -1    0    0    0    0 -0.00000000000E+00 -0.00000000000E+00 -0.34996269501E-01  0.35000000000E-01  0.51099999109E-03 0.  1.
       22    1    1    2    0    0 -0.94082543929E-02  0.16600238250E-02 -0.33670877833E-01  0.34999984912E-01  0.00000000000E+00 0.  1.
       22    1    1    2    0    0 -0.42890455401E-07  0.37930005197E-07  0.13310349342E-06  0.14489588131E-06  0.00000000000E+00 0.  1.
       22    1    1    2    0    0  0.94082972833E-02 -0.16600617550E-02  0.33670744729E-01  0.34999870192E-01  0.00000000000E+00 0. -1.
</event>
<event>
 5   0  0.1792268E+06  0.9118800E+02  0.7546771E-02  0.1180000E+00
      -11   -1    0    0    0    0  0.00000000000E+00  0.00000000000E+00  0.34996269501E-01  0.35000000000E-01  0.51099999109E-03 0. -1.
       11   -1    0    0    0    0 -0.00000000000E+00 -0.00000000000E+00 -0.34996269501E-01  0.35000000000E-01  0.51099999109E-03 0.  1.
       22    1    1    2    0    0  0.33296724331E-05 -0.20771555569E-02  0.34920756597E-01  0.34982478866E-01  0.00000000000E+00 0. -1.
       22    1    1    2    0    0 -0.86760110215E-04  0.19885654739E-02 -0.34754682291E-01  0.34811633991E-01  0.00000000000E+00 0.  1.
       22    1    1    2    0    0  0.83430437782E-04  0.88590082990E-04 -0.16607430606E-03  0.20588714357E-03  0.00000000000E+00 0.  1.
</event>
<event>
 5   0  0.1792268E+06  0.9118800E+02  0.7546771E-02  0.1180000E+00
      -11   -1    0    0    0    0  0.00000000000E+00  0.00000000000E+00  0.34996269501E-01  0.35000000000E-01  0.51099999109E-03 0.  1.
       11   -1    0    0    0    0 -0.00000000000E+00 -0.00000000000E+00 -0.34996269501E-01  0.35000000000E-01  0.51099999109E-03 0. -1.
       22    1    1    2    0    0 -0.48753068294E-03 -0.17488761645E-02 -0.59501345031E-02  0.62209609073E-02  0.00000000000E+00 0. -1.
       22    1    1    2    0    0 -0.72384959462E-02 -0.13583878739E-01  0.30299606870E-01  0.33985052032E-01  0.00000000000E+00 0.  1.
       22    1    1    2    0    0  0.77260266291E-02  0.15332754904E-01 -0.24349472367E-01  0.29793987060E-01  0.00000000000E+00 0. -1.
</event>
<event>
 5   0  0.1792268E+06  0.9118800E+02  0.7546771E-02  0.1180000E+00
      -11   -1    0    0    0    0  0.00000000000E+00  0.00000000000E+00  0.34996269501E-01  0.35000000000E-01  0.51099999109E-03 0. -1.
       11   -1    0    0    0    0 -0.00000000000E+00 -0.00000000000E+00 -0.34996269501E-01  0.35000000000E-01  0.51099999109E-03 0.  1.
       22    1    1    2    0    0 -0.16124057162E-01  0.16795598840E-01  0.25293872841E-01  0.34378152409E-01  0.00000000000E+00 0. -1.
       22    1    1    2    0    0 -0.64545367753E-04  0.10848704747E-03  0.66059619595E-03  0.67254953578E-03  0.00000000000E+00 0.  1.
       22    1    1    2    0    0  0.16188602530E-01 -0.16904085888E-01 -0.25954469037E-01  0.34949298055E-01  0.00000000000E+00 0.  1.
</event>
<event>
 5   0  0.1792268E+06  0.9118800E+02  0.7546771E-02  0.1180000E+00
      -11   -1    0    0    0    0  0.00000000000E+00  0.00000000000E+00  0.34996269501E-01  0.35000000000E-01  0.51099999109E-03 0.  1.
       11   -1    0    0    0    0 -0.00000000000E+00 -0.00000000000E+00 -0.34996269501E-01  0.35000000000E-01  0.51099999109E-03 0. -1.
       22    1    1    2    0    0  0.19908390162E-01 -0.12331725370E-01 -0.13200367514E-02  0.23455445988E-01  0.00000000000E+00 0.  1.
       22    1    1    2    0    0  0.15221420726E-03 -0.30355228443E-04 -0.16811608498E-01  0.16812324970E-01  0.00000000000E+00 0. -1.
       22    1    1    2    0    0 -0.20060604369E-01  0.12362080599E-01  0.18131645249E-01  0.29732229043E-01  0.00000000000E+00 0. -1.
</event>
<event>
 5   0  0.1792268E+06  0.9118800E+02  0.7546771E-02  0.1180000E+00
      -11   -1    0    0    0    0  0.00000000000E+00  0.00000000000E+00  0.34996269501E-01  0.35000000000E-01  0.51099999109E-03 0.  1.
       11   -1    0    0    0    0 -0.00000000000E+00 -0.00000000000E+00 -0.34996269501E-01  0.35000000000E-01  0.51099999109E-03 0.  1.
       22    1    1    2    0    0  0.15549879269E-07  0.25621364991E-07  0.35001437204E-01  0.34999917705E-01  0.00000000000E+00 0.  1.
       22    1    1    2    0    0 -0.11662784568E-11 -0.19216641818E-11 -0.35001516770E-01  0.34999997273E-01  0.00000000000E+00 0.  1.
       22    1    1    2    0    0 -0.15548712991E-07 -0.25619443327E-07  0.79565344384E-07  0.85022128761E-07  0.00000000000E+00 0.  1.
</event>
<event>
 5   0  0.1792268E+06  0.9118800E+02  0.7546771E-02  0.1180000E+00
      -11   -1    0    0    0    0  0.00000000000E+00  0.00000000000E+00  0.34996269501E-01  0.35000000000E-01  0.51099999109E-03 0.  1.
       11   -1    0    0    0    0 -0.00000000000E+00 -0.00000000000E+00 -0.34996269501E-01  0.35000000000E-01  0.51099999109E-03 0.  1.
       22    1    1    2    0    0 -0.15818441259E-04 -0.66254494988E-05  0.67345005183E-04  0.69494383859E-04  0.00000000000E+00 0.  1.
       22    1    1    2    0    0  0.91571851848E-03  0.16397283818E-04  0.34919789799E-01  0.34931798248E-01  0.00000000000E+00 0.  1.
       22    1    1    2    0    0 -0.89990007722E-03 -0.97718343187E-05 -0.34987134804E-01  0.34998707368E-01  0.00000000000E+00 0.  1.
</event>
<event>
 5   0  0.1792268E+06  0.9118800E+02  0.7546771E-02  0.1180000E+00
      -11   -1    0    0    0    0  0.00000000000E+00  0.00000000000E+00  0.34996269501E-01  0.35000000000E-01  0.51099999109E-03 0.  1.
       11   -1    0    0    0    0 -0.00000000000E+00 -0.00000000000E+00 -0.34996269501E-01  0.35000000000E-01  0.51099999109E-03 0. -1.
       22    1    1    2    0    0  0.13013495545E-04 -0.16064408701E-04  0.93404224813E-04  0.95664860352E-04  0.00000000000E+00 0. -1.
       22    1    1    2    0    0  0.62777223463E-03 -0.87560327962E-03  0.34888535363E-01  0.34905166936E-01  0.00000000000E+00 0.  1.
       22    1    1    2    0    0 -0.64078573017E-03  0.89166768832E-03 -0.34981939588E-01  0.34999168203E-01  0.00000000000E+00 0. -1.
</event>
<event>
 5   0  0.1792268E+06  0.9118800E+02  0.7546771E-02  0.1180000E+00
      -11   -1    0    0    0    0  0.00000000000E+00  0.00000000000E+00  0.34996269501E-01  0.35000000000E-01  0.51099999109E-03 0. -1.
       11   -1    0    0    0    0 -0.00000000000E+00 -0.00000000000E+00 -0.34996269501E-01  0.35000000000E-01  0.51099999109E-03 0. -1.
       22    1    1    2    0    0  0.00000000000E+00  0.00000000000E+00  0.33485467272E-01  0.33484615954E-01  0.00000000000E+00 0. -1.
       22    1    1    2    0    0  0.19539984488E-02 -0.58036825594E-02 -0.68639938106E-02  0.91986549137E-02  0.00000000000E+00 0.  1.
       22    1    1    2    0    0 -0.19539984488E-02  0.58036825594E-02 -0.26621473462E-01  0.27316729132E-01  0.00000000000E+00 0. -1.
</event>
<event>
 5   0  0.1792268E+06  0.9118800E+02  0.7546771E-02  0.1180000E+00
      -11   -1    0    0    0    0  0.00000000000E+00  0.00000000000E+00  0.34996269501E-01  0.35000000000E-01  0.51099999109E-03 0. -1.
       11   -1    0    0    0    0 -0.00000000000E+00 -0.00000000000E+00 -0.34996269501E-01  0.35000000000E-01  0.51099999109E-03 0.  1.
       22    1    1    2    0    0 -0.73553039901E-02  0.24809176352E-01 -0.22485283764E-01  0.34280952641E-01  0.00000000000E+00 0.  1.
       22    1    1    2    0    0  0.95731944964E-03 -0.80117448093E-03 -0.94676678003E-03  0.15667509098E-02  0.00000000000E+00 0.  1.
       22    1    1    2    0    0  0.63979845404E-02 -0.24008001871E-01  0.23432050544E-01  0.34152296449E-01  0.00000000000E+00 0. -1.
</event>
<event>
 5   0  0.1792268E+06  0.9118800E+02  0.7546771E-02  0.1180000E+00
      -11   -1    0    0    0    0  0.00000000000E+00  0.00000000000E+00  0.34996269501E-01  0.35000000000E-01  0.51099999109E-03 0.  1.
       11   -1    0    0    0    0 -0.00000000000E+00 -0.00000000000E+00 -0.34996269501E-01  0.35000000000E-01  0.51099999109E-03 0.  1.
       22    1    1    2    0    0  0.26140445824E-05 -0.44874282603E-06  0.17252824402E-05  0.31640478348E-05  0.00000000000E+00 0. -1.
       22    1    1    2    0    0  0.70531236666E-05  0.56072731206E-03  0.34993065770E-01  0.34997558727E-01  0.00000000000E+00 0.  1.
       22    1    1    2    0    0 -0.96671682490E-05 -0.56027856923E-03 -0.34994791052E-01  0.34999277226E-01  0.00000000000E+00 0.  1.
</event>
<event>
 5   0  0.1792268E+06  0.9118800E+02  0.7546771E-02  0.1180000E+00
      -11   -1    0    0    0    0  0.00000000000E+00  0.00000000000E+00  0.34996269501E-01  0.35000000000E-01  0.51099999109E-03 0.  1.
       11   -1    0    0    0    0 -0.00000000000E+00 -0.00000000000E+00 -0.34996269501E-01  0.35000000000E-01  0.51099999109E-03 0. -1.
       22    1    1    2    0    0  0.80654543521E-02 -0.63937725855E-02  0.33452465585E-01  0.34999990507E-01  0.00000000000E+00 0.  1.
       22    1    1    2    0    0 -0.80654600582E-02  0.63937630114E-02 -0.33452472293E-01  0.34999996484E-01  0.00000000000E+00 0. -1.
       22    1    1    2    0    0  0.57060729459E-08  0.95741280115E-08  0.67078777533E-08  0.13008413416E-07  0.00000000000E+00 0. -1.
</event>
<event>
 5   0  0.1792268E+06  0.9118800E+02  0.7546771E-02  0.1180000E+00
      -11   -1    0    0    0    0  0.00000000000E+00  0.00000000000E+00  0.34996269501E-01  0.35000000000E-01  0.51099999109E-03 0.  1.
       11   -1    0    0    0    0 -0.00000000000E+00 -0.00000000000E+00 -0.34996269501E-01  0.35000000000E-01  0.51099999109E-03 0. -1.
       22    1    1    2    0    0 -0.22052734761E-02  0.10298819274E-01  0.33375227969E-01  0.34997639228E-01  0.00000000000E+00 0.  1.
       22    1    1    2    0    0  0.22047142132E-02 -0.10297692013E-01 -0.33377676754E-01  0.34999607585E-01  0.00000000000E+00 0. -1.
       22    1    1    2    0    0  0.55926289691E-06 -0.11272606776E-05  0.24487851166E-05  0.27531872749E-05  0.00000000000E+00 0. -1.
</event>
<event>
 5   0  0.1792268E+06  0.9118800E+02  0.7546771E-02  0.1180000E+00
      -11   -1    0    0    0    0  0.00000000000E+00  0.00000000000E+00  0.34996269501E-01  0.35000000000E-01  0.51099999109E-03 0.  1.
       11   -1    0    0    0    0 -0.00000000000E+00 -0.00000000000E+00 -0.34996269501E-01  0.35000000000E-01  0.51099999109E-03 0.  1.
       22    1    1    2    0    0  0.80998052826E-03 -0.18311659393E-03 -0.34986492414E-01  0.34996346261E-01  0.00000000000E+00 0.  1.
       22    1    1    2    0    0 -0.79524831205E-03  0.19274203028E-03  0.34969883608E-01  0.34979455812E-01  0.00000000000E+00 0.  1.
       22    1    1    2    0    0 -0.14732216211E-04 -0.96254363411E-05  0.16608806321E-04  0.24197926908E-04  0.00000000000E+00 0. -1.
</event>
<event>
 5   0  0.1792268E+06  0.9118800E+02  0.7546771E-02  0.1180000E+00
      -11   -1    0    0    0    0  0.00000000000E+00  0.00000000000E+00  0.34996269501E-01  0.35000000000E-01  0.51099999109E-03 0.  1.
       11   -1    0    0    0    0 -0.00000000000E+00 -0.00000000000E+00 -0.34996269501E-01  0.35000000000E-01  0.51099999109E-03 0. -1.
       22    1    1    2    0    0 -0.37898806191E-02  0.51309810248E-03  0.24655723055E-01  0.24950574024E-01  0.00000000000E+00 0.  1.
       22    1    1    2    0    0  0.35358917814E-03 -0.94412612446E-05  0.10107230121E-01  0.10113417581E-01  0.00000000000E+00 0. -1.
       22    1    1    2    0    0  0.34362914410E-02 -0.50365684123E-03 -0.34762953176E-01  0.34936008395E-01  0.00000000000E+00 0. -1.
</event>
<event>
 5   0  0.1792268E+06  0.9118800E+02  0.7546771E-02  0.1180000E+00
      -11   -1    0    0    0    0  0.00000000000E+00  0.00000000000E+00  0.34996269501E-01  0.35000000000E-01  0.51099999109E-03 0. -1.
       11   -1    0    0    0    0 -0.00000000000E+00 -0.00000000000E+00 -0.34996269501E-01  0.35000000000E-01  0.51099999109E-03 0.  1.
       22    1    1    2    0    0 -0.16688590781E-01  0.23701104202E-02 -0.30597004368E-01  0.34932837874E-01  0.00000000000E+00 0.  1.
       22    1    1    2    0    0  0.16658357742E-01 -0.26081031090E-02  0.30370838046E-01  0.34737456558E-01  0.00000000000E+00 0. -1.
       22    1    1    2    0    0  0.30233038862E-04  0.23799268886E-03  0.22616632180E-03  0.32970556820E-03  0.00000000000E+00 0. -1.
</event>
<event>
 5   0  0.1792268E+06  0.9118800E+02  0.7546771E-02  0.1180000E+00
      -11   -1    0    0    0    0  0.00000000000E+00  0.00000000000E+00  0.34996269501E-01  0.35000000000E-01  0.51099999109E-03 0. -1.
       11   -1    0    0    0    0 -0.00000000000E+00 -0.00000000000E+00 -0.34996269501E-01  0.35000000000E-01  0.51099999109E-03 0.  1.
       22    1    1    2    0    0 -0.12611931402E-01  0.10030864190E-01 -0.30383468587E-01  0.34392356905E-01  0.00000000000E+00 0.  1.
       22    1    1    2    0    0 -0.34066531099E-03  0.64810535918E-03 -0.16497610383E-03  0.75054015585E-03  0.00000000000E+00 0. -1.
       22    1    1    2    0    0  0.12952596713E-01 -0.10678969549E-01  0.30548444691E-01  0.34857102939E-01  0.00000000000E+00 0. -1.
</event>
<event>
 5   0  0.1792268E+06  0.9118800E+02  0.7546771E-02  0.1180000E+00
      -11   -1    0    0    0    0  0.00000000000E+00  0.00000000000E+00  0.34996269501E-01  0.35000000000E-01  0.51099999109E-03 0.  1.
       11   -1    0    0    0    0 -0.00000000000E+00 -0.00000000000E+00 -0.34996269501E-01  0.35000000000E-01  0.51099999109E-03 0. -1.
       22    1    1    2    0    0 -0.13014166201E-07  0.27159385210E-07  0.47880735277E-06  0.47975356361E-06  0.00000000000E+00 0. -1.
       22    1    1    2    0    0 -0.27530236805E-02 -0.82552227349E-02 -0.33900911304E-01  0.34999994700E-01  0.00000000000E+00 0. -1.
       22    1    1    2    0    0  0.27530366946E-02  0.82551955755E-02  0.33900432496E-01  0.34999525546E-01  0.00000000000E+00 0.  1.
</event>
<event>
 5   0  0.1792268E+06  0.9118800E+02  0.7546771E-02  0.1180000E+00
      -11   -1    0    0    0    0  0.00000000000E+00  0.00000000000E+00  0.34996269501E-01  0.35000000000E-01  0.51099999109E-03 0.  1.
       11   -1    0    0    0    0 -0.00000000000E+00 -0.00000000000E+00 -0.34996269501E-01  0.35000000000E-01  0.51099999109E-03 0.  1.
       22    1    1    2    0    0 -0.39465009913E-05 -0.15158645588E-04  0.12508579682E-03  0.12606274617E-03  0.00000000000E+00 0. -1.
       22    1    1    2    0    0 -0.27673874708E-09 -0.10629630137E-08 -0.35000671846E-01  0.34999511847E-01  0.00000000000E+00 0.  1.
       22    1    1    2    0    0  0.39467777301E-05  0.15159708551E-04  0.34875586049E-01  0.34874425407E-01  0.00000000000E+00 0.  1.
</event>
<event>
 5   0  0.1792268E+06  0.9118800E+02  0.7546771E-02  0.1180000E+00
      -11   -1    0    0    0    0  0.00000000000E+00  0.00000000000E+00  0.34996269501E-01  0.35000000000E-01  0.51099999109E-03 0. -1.
       11   -1    0    0    0    0 -0.00000000000E+00 -0.00000000000E+00 -0.34996269501E-01  0.35000000000E-01  0.51099999109E-03 0.  1.
       22    1    1    2    0    0  0.58065953970E-03  0.26083993272E-02  0.34878049641E-01  0.34980269572E-01  0.00000000000E+00 0. -1.
       22    1    1    2    0    0 -0.11289122827E-04  0.18546122871E-05  0.18126298934E-04  0.21434705362E-04  0.00000000000E+00 0. -1.
       22    1    1    2    0    0 -0.56937041687E-03 -0.26102539395E-02 -0.34896175940E-01  0.34998295723E-01  0.00000000000E+00 0.  1.
</event>
<event>
 5   0  0.1792268E+06  0.9118800E+02  0.7546771E-02  0.1180000E+00
      -11   -1    0    0    0    0  0.00000000000E+00  0.00000000000E+00  0.34996269501E-01  0.35000000000E-01  0.51099999109E-03 0.  1.
       11   -1    0    0    0    0 -0.00000000000E+00 -0.00000000000E+00 -0.34996269501E-01  0.35000000000E-01  0.51099999109E-03 0.  1.
       22    1    1    2    0    0 -0.00000000000E+00  0.00000000000E+00  0.34978243797E-01  0.34976032737E-01  0.00000000000E+00 0.  1.
       22    1    1    2    0    0 -0.31080254616E-04  0.18659471846E-04  0.84757184817E-05  0.37228966147E-04  0.00000000000E+00 0.  1.
       22    1    1    2    0    0  0.31080254616E-04 -0.18659471846E-04 -0.34986719516E-01  0.34986738297E-01  0.00000000000E+00 0.  1.
</event>
<event>
 5   0  0.1792268E+06  0.9118800E+02  0.7546771E-02  0.1180000E+00
      -11   -1    0    0    0    0  0.00000000000E+00  0.00000000000E+00  0.34996269501E-01  0.35000000000E-01  0.51099999109E-03 0.  1.
       11   -1    0    0    0    0 -0.00000000000E+00 -0.00000000000E+00 -0.34996269501E-01  0.35000000000E-01  0.51099999109E-03 0. -1.
       22    1    1    2    0    0 -0.13253588882E-01 -0.14516618975E-01  0.27491134246E-01  0.33795743916E-01  0.00000000000E+00 0.  1.
       22    1    1    2    0    0  0.13461301288E-01  0.14797324240E-01 -0.28678819385E-01  0.34966299752E-01  0.00000000000E+00 0. -1.
       22    1    1    2    0    0 -0.20771240676E-03 -0.28070526502E-03  0.11876851391E-02  0.12379563317E-02  0.00000000000E+00 0.  1.
</event>
<event>
 5   0  0.1792268E+06  0.9118800E+02  0.7546771E-02  0.1180000E+00
      -11   -1    0    0    0    0  0.00000000000E+00  0.00000000000E+00  0.34996269501E-01  0.35000000000E-01  0.51099999109E-03 0. -1.
       11   -1    0    0    0    0 -0.00000000000E+00 -0.00000000000E+00 -0.34996269501E-01  0.35000000000E-01  0.51099999109E-03 0.  1.
       22    1    1    2    0    0 -0.59583101769E-03 -0.16462928489E-02 -0.34689963309E-01  0.34734116501E-01  0.00000000000E+00 0.  1.
       22    1    1    2    0    0  0.50538547663E-03  0.18896286680E-02  0.34885865429E-01  0.34940659949E-01  0.00000000000E+00 0. -1.
       22    1    1    2    0    0  0.90445541066E-04 -0.24333581914E-03 -0.19590211976E-03  0.32522354974E-03  0.00000000000E+00 0. -1.
</event>
<event>
 5   0  0.1792268E+06  0.9118800E+02  0.7546771E-02  0.1180000E+00
      -11   -1    0    0    0    0  0.00000000000E+00  0.00000000000E+00  0.34996269501E-01  0.35000000000E-01  0.51099999109E-03 0.  1.
       11   -1    0    0    0    0 -0.00000000000E+00 -0.00000000000E+00 -0.34996269501E-01  0.35000000000E-01  0.51099999109E-03 0. -1.
       22    1    1    2    0    0 -0.11945231591E-02 -0.15862354572E-02  0.29899015927E-01  0.29964882478E-01  0.00000000000E+00 0.  1.
       22    1    1    2    0    0  0.17605156963E-02  0.15214325674E-02 -0.34912207039E-01  0.34989660943E-01  0.00000000000E+00 0. -1.
       22    1    1    2    0    0 -0.56599253720E-03  0.64802889811E-04  0.50131911120E-02  0.50454565791E-02  0.00000000000E+00 0.  1.
</event>
<event>
 5   0  0.1792268E+06  0.9118800E+02  0.7546771E-02  0.1180000E+00
      -11   -1    0    0    0    0  0.00000000000E+00  0.00000000000E+00  0.34996269501E-01  0.35000000000E-01  0.51099999109E-03 0.  1.
       11   -1    0    0    0    0 -0.00000000000E+00 -0.00000000000E+00 -0.34996269501E-01  0.35000000000E-01  0.51099999109E-03 0. -1.
       22    1    1    2    0    0 -0.14825265305E-04 -0.43547054230E-04  0.28173763215E-04  0.53943445915E-04  0.00000000000E+00 0.  1.
       22    1    1    2    0    0 -0.59596823479E-02  0.73726839989E-02  0.33652958982E-01  0.34962779227E-01  0.00000000000E+00 0.  1.
       22    1    1    2    0    0  0.59745076132E-02 -0.73291369447E-02 -0.33681132745E-01  0.34983277327E-01  0.00000000000E+00 0. -1.
</event>
<event>
 5   0  0.1792268E+06  0.9118800E+02  0.7546771E-02  0.1180000E+00
      -11   -1    0    0    0    0  0.00000000000E+00  0.00000000000E+00  0.34996269501E-01  0.35000000000E-01  0.51099999109E-03 0.  1.
       11   -1    0    0    0    0 -0.00000000000E+00 -0.00000000000E+00 -0.34996269501E-01  0.35000000000E-01  0.51099999109E-03 0. -1.
       22    1    1    2    0    0 -0.14296022288E-06  0.26762512199E-06  0.13670108122E-05  0.14002783266E-05  0.00000000000E+00 0.  1.
       22    1    1    2    0    0  0.25834925386E-02 -0.17943510248E-02 -0.34858361440E-01  0.34999992737E-01  0.00000000000E+00 0. -1.
       22    1    1    2    0    0 -0.25833495783E-02  0.17940833996E-02  0.34856994429E-01  0.34998606985E-01  0.00000000000E+00 0.  1.
</event>
<event>
 5   0  0.1792268E+06  0.9118800E+02  0.7546771E-02  0.1180000E+00
      -11   -1    0    0    0    0  0.00000000000E+00  0.00000000000E+00  0.34996269501E-01  0.35000000000E-01  0.51099999109E-03 0. -1.
       11   -1    0    0    0    0 -0.00000000000E+00 -0.00000000000E+00 -0.34996269501E-01  0.35000000000E-01  0.51099999109E-03 0.  1.
       22    1    1    2    0    0  0.24872157676E-02  0.54499781371E-02  0.34465401055E-01  0.34982172229E-01  0.00000000000E+00 0. -1.
       22    1    1    2    0    0  0.26481210221E-06 -0.28836216740E-06  0.17971352223E-04  0.17975616232E-04  0.00000000000E+00 0.  1.
       22    1    1    2    0    0 -0.24874805797E-02 -0.54496897749E-02 -0.34483372407E-01  0.34999852155E-01  0.00000000000E+00 0.  1.
</event>
<event>
 5   0  0.1792268E+06  0.9118800E+02  0.7546771E-02  0.1180000E+00
      -11   -1    0    0    0    0  0.00000000000E+00  0.00000000000E+00  0.34996269501E-01  0.35000000000E-01  0.51099999109E-03 0.  1.
       11   -1    0    0    0    0 -0.00000000000E+00 -0.00000000000E+00 -0.34996269501E-01  0.35000000000E-01  0.51099999109E-03 0. -1.
       22    1    1    2    0    0  0.13209194074E-03  0.83100969969E-03  0.34987331958E-01  0.34997448807E-01  0.00000000000E+00 0.  1.
       22    1    1    2    0    0 -0.66785665963E-07  0.19048366524E-06  0.25454302044E-05  0.25534210929E-05  0.00000000000E+00 0. -1.
       22    1    1    2    0    0 -0.13202515507E-03 -0.83120018335E-03 -0.34989877389E-01  0.34999997772E-01  0.00000000000E+00 0. -1.
</event>
<event>
 5   0  0.1792268E+06  0.9118800E+02  0.7546771E-02  0.1180000E+00
      -11   -1    0    0    0    0  0.00000000000E+00  0.00000000000E+00  0.34996269501E-01  0.35000000000E-01  0.51099999109E-03 0.  1.
       11   -1    0    0    0    0 -0.00000000000E+00 -0.00000000000E+00 -0.34996269501E-01  0.35000000000E-01  0.51099999109E-03 0. -1.
       22    1    1    2    0    0 -0.10211064812E-01  0.16439167205E-02  0.21470168952E-01  0.23831417533E-01  0.00000000000E+00 0. -1.
       22    1    1    2    0    0  0.38020149622E-02  0.22582268186E-02  0.11518043419E-01  0.12337756293E-01  0.00000000000E+00 0.  1.
       22    1    1    2    0    0  0.64090498503E-02 -0.39021435391E-02 -0.32988212371E-01  0.33830826174E-01  0.00000000000E+00 0. -1.
</event>
<event>
 5   0  0.1792268E+06  0.9118800E+02  0.7546771E-02  0.1180000E+00
      -11   -1    0    0    0    0  0.00000000000E+00  0.00000000000E+00  0.34996269501E-01  0.35000000000E-01  0.51099999109E-03 0.  1.
       11   -1    0    0    0    0 -0.00000000000E+00 -0.00000000000E+00 -0.34996269501E-01  0.35000000000E-01  0.51099999109E-03 0. -1.
       22    1    1    2    0    0 -0.64109951126E-02 -0.42251646054E-02 -0.34146398440E-01  0.34998991424E-01  0.00000000000E+00 0. -1.
       22    1    1    2    0    0  0.64126825818E-02  0.42246414032E-02  0.34146402992E-01  0.34999241852E-01  0.00000000000E+00 0.  1.
       22    1    1    2    0    0 -0.16874691092E-05  0.52320229217E-06 -0.45520863890E-08  0.17667239045E-05  0.00000000000E+00 0. -1.
</event>
<event>
 5   0  0.1792268E+06  0.9118800E+02  0.7546771E-02  0.1180000E+00
      -11   -1    0    0    0    0  0.00000000000E+00  0.00000000000E+00  0.34996269501E-01  0.35000000000E-01  0.51099999109E-03 0. -1.
       11   -1    0    0    0    0 -0.00000000000E+00 -0.00000000000E+00 -0.34996269501E-01  0.35000000000E-01  0.51099999109E-03 0. -1.
       22    1    1    2    0    0  0.10176341716E-05 -0.31663994132E-05  0.18341721135E-04  0.18640826128E-04  0.00000000000E+00 0. -1.
       22    1    1    2    0    0  0.10232966487E-09 -0.31840183815E-09 -0.35003155233E-01  0.34999851235E-01  0.00000000000E+00 0. -1.
       22    1    1    2    0    0 -0.10177365013E-05  0.31667178150E-05  0.34984813512E-01  0.34981507939E-01  0.00000000000E+00 0. -1.
</event>
<event>
 5   0  0.1792268E+06  0.9118800E+02  0.7546771E-02  0.1180000E+00
      -11   -1    0    0    0    0  0.00000000000E+00  0.00000000000E+00  0.34996269501E-01  0.35000000000E-01  0.51099999109E-03 0. -1.
       11   -1    0    0    0    0 -0.00000000000E+00 -0.00000000000E+00 -0.34996269501E-01  0.35000000000E-01  0.51099999109E-03 0.  1.
       22    1    1    2    0    0 -0.13760487988E-02 -0.19391539000E-02  0.34915782641E-01  0.34996652776E-01  0.00000000000E+00 0. -1.
       22    1    1    2    0    0 -0.98139523669E-07 -0.15811141937E-06  0.33421870045E-05  0.33473638225E-05  0.00000000000E+00 0.  1.
       22    1    1    2    0    0  0.13761469384E-02  0.19393120114E-02 -0.34919124828E-01  0.34999999860E-01  0.00000000000E+00 0.  1.
</event>
<event>
 5   0  0.1792268E+06  0.9118800E+02  0.7546771E-02  0.1180000E+00
      -11   -1    0    0    0    0  0.00000000000E+00  0.00000000000E+00  0.34996269501E-01  0.35000000000E-01  0.51099999109E-03 0.  1.
       11   -1    0    0    0    0 -0.00000000000E+00 -0.00000000000E+00 -0.34996269501E-01  0.35000000000E-01  0.51099999109E-03 0.  1.
       22    1    1    2    0    0 -0.72785627189E-03 -0.67260165013E-03  0.20142537105E-02  0.22448576219E-02  0.00000000000E+00 0. -1.
       22    1    1    2    0    0  0.00000000000E+00  0.00000000000E+00  0.32864062057E-01  0.32862749532E-01  0.00000000000E+00 0.  1.
       22    1    1    2    0    0  0.72785627189E-03  0.67260165013E-03 -0.34878315768E-01  0.34892392846E-01  0.00000000000E+00 0.  1.
</event>
<event>
 5   0  0.1792268E+06  0.9118800E+02  0.7546771E-02  0.1180000E+00
      -11   -1    0    0    0    0  0.00000000000E+00  0.00000000000E+00  0.34996269501E-01  0.35000000000E-01  0.51099999109E-03 0.  1.
       11   -1    0    0    0    0 -0.00000000000E+00 -0.00000000000E+00 -0.34996269501E-01  0.35000000000E-01  0.51099999109E-03 0. -1.
       22    1    1    2    0    0  0.23112784211E-04 -0.20954194552E-04  0.28776178687E-03  0.28944796604E-03  0.00000000000E+00 0.  1.
       22    1    1    2    0    0 -0.30210747427E-04 -0.10102720200E-01 -0.33499695173E-01  0.34989933478E-01  0.00000000000E+00 0. -1.
       22    1    1    2    0    0  0.70979632166E-05  0.10123674394E-01  0.33211933386E-01  0.34720618556E-01  0.00000000000E+00 0.  1.
</event>
<event>
 5   0  0.1792268E+06  0.9118800E+02  0.7546771E-02  0.1180000E+00
      -11   -1    0    0    0    0  0.00000000000E+00  0.00000000000E+00  0.34996269501E-01  0.35000000000E-01  0.51099999109E-03 0. -1.
       11   -1    0    0    0    0 -0.00000000000E+00 -0.00000000000E+00 -0.34996269501E-01  0.35000000000E-01  0.51099999109E-03 0.  1.
       22    1    1    2    0    0 -0.73528180270E-03  0.10072605615E-02 -0.26036693112E-02  0.28869199938E-02  0.00000000000E+00 0.  1.
       22    1    1    2    0    0 -0.15003432539E-01 -0.40750685791E-02  0.30899143904E-01  0.34589973488E-01  0.00000000000E+00 0. -1.
       22    1    1    2    0    0  0.15738714341E-01  0.30678080176E-02 -0.28295474593E-01  0.32523106518E-01  0.00000000000E+00 0.  1.
</event>
<event>
 5   0  0.1792268E+06  0.9118800E+02  0.7546771E-02  0.1180000E+00
      -11   -1    0    0    0    0  0.00000000000E+00  0.00000000000E+00  0.34996269501E-01  0.35000000000E-01  0.51099999109E-03 0. -1.
       11   -1    0    0    0    0 -0.00000000000E+00 -0.00000000000E+00 -0.34996269501E-01  0.35000000000E-01  0.51099999109E-03 0.  1.
       22    1    1    2    0    0  0.12565629944E-03 -0.47438584484E-03  0.38807836539E-02  0.39116893031E-02  0.00000000000E+00 0.  1.
       22    1    1    2    0    0  0.23593313890E-01  0.22325092250E-01 -0.83311263229E-02  0.33532996736E-01  0.00000000000E+00 0. -1.
       22    1    1    2    0    0 -0.23718970189E-01 -0.21850706405E-01  0.44503426689E-02  0.32555313961E-01  0.00000000000E+00 0.  1.
</event>
<event>
 5   0  0.1792268E+06  0.9118800E+02  0.7546771E-02  0.1180000E+00
      -11   -1    0    0    0    0  0.00000000000E+00  0.00000000000E+00  0.34996269501E-01  0.35000000000E-01  0.51099999109E-03 0.  1.
       11   -1    0    0    0    0 -0.00000000000E+00 -0.00000000000E+00 -0.34996269501E-01  0.35000000000E-01  0.51099999109E-03 0. -1.
       22    1    1    2    0    0 -0.12377902855E-02  0.22949824602E-02 -0.14745864777E-01  0.14974631792E-01  0.00000000000E+00 0. -1.
       22    1    1    2    0    0  0.51128848184E-03 -0.24047076197E-02  0.34835579249E-01  0.34922222384E-01  0.00000000000E+00 0.  1.
       22    1    1    2    0    0  0.72650180362E-03  0.10972515957E-03 -0.20089714472E-01  0.20103145824E-01  0.00000000000E+00 0. -1.
</event>
<event>
 5   0  0.1792268E+06  0.9118800E+02  0.7546771E-02  0.1180000E+00
      -11   -1    0    0    0    0  0.00000000000E+00  0.00000000000E+00  0.34996269501E-01  0.35000000000E-01  0.51099999109E-03 0.  1.
       11   -1    0    0    0    0 -0.00000000000E+00 -0.00000000000E+00 -0.34996269501E-01  0.35000000000E-01  0.51099999109E-03 0.  1.
       22    1    1    2    0    0  0.19592613596E-04 -0.17535702059E-03 -0.34933864370E-01  0.34934309980E-01  0.00000000000E+00 0.  1.
       22    1    1    2    0    0  0.54530418387E-04  0.22260439518E-03  0.34969927877E-01  0.34970678890E-01  0.00000000000E+00 0.  1.
       22    1    1    2    0    0 -0.74123031983E-04 -0.47247374589E-04 -0.36063507125E-04  0.95011129990E-04  0.00000000000E+00 0.  1.
</event>
<event>
 5   0  0.1792268E+06  0.9118800E+02  0.7546771E-02  0.1180000E+00
      -11   -1    0    0    0    0  0.00000000000E+00  0.00000000000E+00  0.34996269501E-01  0.35000000000E-01  0.51099999109E-03 0.  1.
       11   -1    0    0    0    0 -0.00000000000E+00 -0.00000000000E+00 -0.34996269501E-01  0.35000000000E-01  0.51099999109E-03 0. -1.
       22    1    1    2    0    0  0.11207561028E-01  0.13117169978E-01 -0.30452088604E-01  0.34999989610E-01  0.00000000000E+00 0. -1.
       22    1    1    2    0    0 -0.11207559591E-01 -0.13117186035E-01  0.30451980678E-01  0.34999901266E-01  0.00000000000E+00 0.  1.
       22    1    1    2    0    0 -0.14367158532E-08  0.16056922306E-07  0.10792572659E-06  0.10912310189E-06  0.00000000000E+00 0. -1.
</event>
<event>
 5   0  0.1792268E+06  0.9118800E+02  0.7546771E-02  0.1180000E+00
      -11   -1    0    0    0    0  0.00000000000E+00  0.00000000000E+00  0.34996269501E-01  0.35000000000E-01  0.51099999109E-03 0.  1.
       11   -1    0    0    0    0 -0.00000000000E+00 -0.00000000000E+00 -0.34996269501E-01  0.35000000000E-01  0.51099999109E-03 0. -1.
       22    1    1    2    0    0  0.57935754827E-03 -0.90824877127E-02  0.32624668997E-01  0.33870285877E-01  0.00000000000E+00 0.  1.
       22    1    1    2    0    0  0.50148749546E-03 -0.10025347385E-03  0.10718861515E-02  0.11876364717E-02  0.00000000000E+00 0. -1.
       22    1    1    2    0    0 -0.10808450437E-02  0.91827411865E-02 -0.33696555149E-01  0.34942077651E-01  0.00000000000E+00 0. -1.
</event>
<event>
 5   0  0.1792268E+06  0.9118800E+02  0.7546771E-02  0.1180000E+00
      -11   -1    0    0    0    0  0.00000000000E+00  0.00000000000E+00  0.34996269501E-01  0.35000000000E-01  0.51099999109E-03 0. -1.
       11   -1    0    0    0    0 -0.00000000000E+00 -0.00000000000E+00 -0.34996269501E-01  0.35000000000E-01  0.51099999109E-03 0.  1.
       22    1    1    2    0    0  0.55542826163E-05 -0.79771934976E-06  0.14676640754E-05  0.58000387396E-05  0.00000000000E+00 0.  1.
       22    1    1    2    0    0  0.13609344745E-02  0.17392852109E-02 -0.34927994875E-01  0.34997743951E-01  0.00000000000E+00 0.  1.
       22    1    1    2    0    0 -0.13664887571E-02 -0.17384874915E-02  0.34926527211E-01  0.34996456010E-01  0.00000000000E+00 0. -1.
</event>
<event>
 5   0  0.1792268E+06  0.9118800E+02  0.7546771E-02  0.1180000E+00
      -11   -1    0    0    0    0  0.00000000000E+00  0.00000000000E+00  0.34996269501E-01  0.35000000000E-01  0.51099999109E-03 0.  1.
       11   -1    0    0    0    0 -0.00000000000E+00 -0.00000000000E+00 -0.34996269501E-01  0.35000000000E-01  0.51099999109E-03 0. -1.
       22    1    1    2    0    0  0.11211319082E-01  0.23645216199E-02 -0.33071365172E-01  0.34999997605E-01  0.00000000000E+00 0. -1.
       22    1    1    2    0    0 -0.11211326195E-01 -0.23645186675E-02  0.33071331985E-01  0.34999968326E-01  0.00000000000E+00 0.  1.
       22    1    1    2    0    0  0.71121520747E-08 -0.29523964207E-08  0.33186627182E-07  0.34068336846E-07  0.00000000000E+00 0.  1.
</event>
<event>
 5   0  0.1792268E+06  0.9118800E+02  0.7546771E-02  0.1180000E+00
      -11   -1    0    0    0    0  0.00000000000E+00  0.00000000000E+00  0.34996269501E-01  0.35000000000E-01  0.51099999109E-03 0.  1.
       11   -1    0    0    0    0 -0.00000000000E+00 -0.00000000000E+00 -0.34996269501E-01  0.35000000000E-01  0.51099999109E-03 0. -1.
       22    1    1    2    0    0  0.27436678872E-06  0.17154023863E-05  0.10005660102E-04  0.10155349160E-04  0.00000000000E+00 0.  1.
       22    1    1    2    0    0 -0.14607918080E-03  0.51422158827E-02 -0.34619625189E-01  0.34999745307E-01  0.00000000000E+00 0. -1.
       22    1    1    2    0    0  0.14580481401E-03 -0.51439312851E-02  0.34609619529E-01  0.34990099344E-01  0.00000000000E+00 0.  1.
</event>
<event>
 5   0  0.1792268E+06  0.9118800E+02  0.7546771E-02  0.1180000E+00
      -11   -1    0    0    0    0  0.00000000000E+00  0.00000000000E+00  0.34996269501E-01  0.35000000000E-01  0.51099999109E-03 0. -1.
       11   -1    0    0    0    0 -0.00000000000E+00 -0.00000000000E+00 -0.34996269501E-01  0.35000000000E-01  0.51099999109E-03 0.  1.
       22    1    1    2    0    0 -0.16448415991E-05 -0.38334768117E-05  0.45697044035E-04  0.45887044816E-04  0.00000000000E+00 0. -1.
       22    1    1    2    0    0 -0.20507347053E-02 -0.26340986098E-02  0.34794345736E-01  0.34954119693E-01  0.00000000000E+00 0. -1.
       22    1    1    2    0    0  0.20523795469E-02  0.26379320866E-02 -0.34840042780E-01  0.34999993263E-01  0.00000000000E+00 0.  1.
</event>
<event>
 5   0  0.1792268E+06  0.9118800E+02  0.7546771E-02  0.1180000E+00
      -11   -1    0    0    0    0  0.00000000000E+00  0.00000000000E+00  0.34996269501E-01  0.35000000000E-01  0.51099999109E-03 0.  1.
       11   -1    0    0    0    0 -0.00000000000E+00 -0.00000000000E+00 -0.34996269501E-01  0.35000000000E-01  0.51099999109E-03 0. -1.
       22    1    1    2    0    0 -0.86543067036E-02 -0.11865362487E-01  0.31759129343E-01  0.34990372220E-01  0.00000000000E+00 0.  1.
       22    1    1    2    0    0 -0.83499628110E-05 -0.67593627899E-05 -0.15646288920E-03  0.15683126780E-03  0.00000000000E+00 0. -1.
       22    1    1    2    0    0  0.86626566664E-02  0.11872121850E-01 -0.31602666454E-01  0.34852796512E-01  0.00000000000E+00 0. -1.
</event>
<event>
 5   0  0.1792268E+06  0.9118800E+02  0.7546771E-02  0.1180000E+00
      -11   -1    0    0    0    0  0.00000000000E+00  0.00000000000E+00  0.34996269501E-01  0.35000000000E-01  0.51099999109E-03 0. -1.
       11   -1    0    0    0    0 -0.00000000000E+00 -0.00000000000E+00 -0.34996269501E-01  0.35000000000E-01  0.51099999109E-03 0.  1.
       22    1    1    2    0    0 -0.13436445441E-01 -0.13105882448E-01  0.29500490489E-01  0.34965428068E-01  0.00000000000E+00 0. -1.
       22    1    1    2    0    0 -0.43411614852E-06 -0.16438184516E-05  0.37054164013E-04  0.37093148513E-04  0.00000000000E+00 0.  1.
       22    1    1    2    0    0  0.13436879557E-01  0.13107526267E-01 -0.29537544654E-01  0.34997478784E-01  0.00000000000E+00 0.  1.
</event>
<event>
 5   0  0.1792268E+06  0.9118800E+02  0.7546771E-02  0.1180000E+00
      -11   -1    0    0    0    0  0.00000000000E+00  0.00000000000E+00  0.34996269501E-01  0.35000000000E-01  0.51099999109E-03 0.  1.
       11   -1    0    0    0    0 -0.00000000000E+00 -0.00000000000E+00 -0.34996269501E-01  0.35000000000E-01  0.51099999109E-03 0. -1.
       22    1    1    2    0    0  0.16201892625E-03 -0.11890835822E-04  0.14205365318E-02  0.14297956366E-02  0.00000000000E+00 0. -1.
       22    1    1    2    0    0 -0.12589102967E-02 -0.11603833125E-02  0.33534571070E-01  0.33578248933E-01  0.00000000000E+00 0.  1.
       22    1    1    2    0    0  0.10968913704E-02  0.11722741483E-02 -0.34955107602E-01  0.34991955430E-01  0.00000000000E+00 0. -1.
</event>
<event>
 5   0  0.1792268E+06  0.9118800E+02  0.7546771E-02  0.1180000E+00
      -11   -1    0    0    0    0  0.00000000000E+00  0.00000000000E+00  0.34996269501E-01  0.35000000000E-01  0.51099999109E-03 0. -1.
       11   -1    0    0    0    0 -0.00000000000E+00 -0.00000000000E+00 -0.34996269501E-01  0.35000000000E-01  0.51099999109E-03 0.  1.
       22    1    1    2    0    0 -0.42634395494E-09  0.80412542454E-09  0.19131179584E-09  0.93004681040E-09  0.00000000000E+00 0.  1.
       22    1    1    2    0    0 -0.96737180387E-03  0.24869087771E-02  0.34898129390E-01  0.34999999405E-01  0.00000000000E+00 0. -1.
       22    1    1    2    0    0  0.96737223021E-03 -0.24869095813E-02 -0.34898129581E-01  0.34999999665E-01  0.00000000000E+00 0.  1.
</event>
<event>
 5   0  0.1792268E+06  0.9118800E+02  0.7546771E-02  0.1180000E+00
      -11   -1    0    0    0    0  0.00000000000E+00  0.00000000000E+00  0.34996269501E-01  0.35000000000E-01  0.51099999109E-03 0. -1.
       11   -1    0    0    0    0 -0.00000000000E+00 -0.00000000000E+00 -0.34996269501E-01  0.35000000000E-01  0.51099999109E-03 0.  1.
       22    1    1    2    0    0 -0.18819475136E-02  0.53858150826E-03 -0.34945190335E-01  0.34999973201E-01  0.00000000000E+00 0.  1.
       22    1    1    2    0    0  0.18822719316E-02 -0.53898546017E-03  0.34933256714E-01  0.34988081936E-01  0.00000000000E+00 0. -1.
       22    1    1    2    0    0 -0.32441804385E-06  0.40395190736E-06  0.11933621781E-04  0.11944863039E-04  0.00000000000E+00 0. -1.
</event>
<event>
 5   0  0.1792268E+06  0.9118800E+02  0.7546771E-02  0.1180000E+00
      -11   -1    0    0    0    0  0.00000000000E+00  0.00000000000E+00  0.34996269501E-01  0.35000000000E-01  0.51099999109E-03 0.  1.
       11   -1    0    0    0    0 -0.00000000000E+00 -0.00000000000E+00 -0.34996269501E-01  0.35000000000E-01  0.51099999109E-03 0. -1.
       22    1    1    2    0    0 -0.17806298674E-02  0.10795982436E-02  0.34937914977E-01  0.34999915401E-01  0.00000000000E+00 0.  1.
       22    1    1    2    0    0  0.17806069158E-02 -0.10795790774E-02 -0.34937997917E-01  0.34999996434E-01  0.00000000000E+00 0. -1.
       22    1    1    2    0    0  0.22951566034E-07 -0.19166191476E-07  0.82939551606E-07  0.88165109310E-07  0.00000000000E+00 0. -1.
</event>
<event>
 5   0  0.1792268E+06  0.9118800E+02  0.7546771E-02  0.1180000E+00
      -11   -1    0    0    0    0  0.00000000000E+00  0.00000000000E+00  0.34996269501E-01  0.35000000000E-01  0.51099999109E-03 0.  1.
       11   -1    0    0    0    0 -0.00000000000E+00 -0.00000000000E+00 -0.34996269501E-01  0.35000000000E-01  0.51099999109E-03 0. -1.
       22    1    1    2    0    0  0.16003903771E-07 -0.61165918715E-07  0.34222081307E-06  0.34801218290E-06  0.00000000000E+00 0. -1.
       22    1    1    2    0    0  0.60314723055E-02  0.28501454429E-02 -0.34358371153E-01  0.34999995079E-01  0.00000000000E+00 0. -1.
       22    1    1    2    0    0 -0.60314883094E-02 -0.28500842770E-02  0.34358028932E-01  0.34999656909E-01  0.00000000000E+00 0.  1.
</event>
<event>
 5   0  0.1792268E+06  0.9118800E+02  0.7546771E-02  0.1180000E+00
      -11   -1    0    0    0    0  0.00000000000E+00  0.00000000000E+00  0.34996269501E-01  0.35000000000E-01  0.51099999109E-03 0.  1.
       11   -1    0    0    0    0 -0.00000000000E+00 -0.00000000000E+00 -0.34996269501E-01  0.35000000000E-01  0.51099999109E-03 0. -1.
       22    1    1    2    0    0 -0.23305542465E-01 -0.76432044798E-02 -0.24968637923E-01  0.34999996629E-01  0.00000000000E+00 0. -1.
       22    1    1    2    0    0  0.23305542618E-01  0.76432112521E-02  0.24968626303E-01  0.34999989920E-01  0.00000000000E+00 0.  1.
       22    1    1    2    0    0 -0.15298554911E-09 -0.67722701797E-08  0.11620530975E-07  0.13450791356E-07  0.00000000000E+00 0. -1.
</event>
<event>
 5   0  0.1792268E+06  0.9118800E+02  0.7546771E-02  0.1180000E+00
      -11   -1    0    0    0    0  0.00000000000E+00  0.00000000000E+00  0.34996269501E-01  0.35000000000E-01  0.51099999109E-03 0. -1.
       11   -1    0    0    0    0 -0.00000000000E+00 -0.00000000000E+00 -0.34996269501E-01  0.35000000000E-01  0.51099999109E-03 0.  1.
       22    1    1    2    0    0 -0.85312404501E-04 -0.35723867580E-03 -0.34998020401E-01  0.34999947566E-01  0.00000000000E+00 0.  1.
       22    1    1    2    0    0  0.84863872345E-04  0.35491273847E-03  0.34976240527E-01  0.34978144124E-01  0.00000000000E+00 0. -1.
       22    1    1    2    0    0  0.44853215615E-06  0.23259373326E-05  0.21779873616E-04  0.21908310303E-04  0.00000000000E+00 0.  1.
</event>
<event>
 5   0  0.1792268E+06  0.9118800E+02  0.7546771E-02  0.1180000E+00
      -11   -1    0    0    0    0  0.00000000000E+00  0.00000000000E+00  0.34996269501E-01  0.35000000000E-01  0.51099999109E-03 0.  1.
       11   -1    0    0    0    0 -0.00000000000E+00 -0.00000000000E+00 -0.34996269501E-01  0.35000000000E-01  0.51099999109E-03 0. -1.
       22    1    1    2    0    0 -0.31692802931E-02  0.19701481055E-02  0.34800364906E-01  0.34999874553E-01  0.00000000000E+00 0.  1.
       22    1    1    2    0    0  0.31692677109E-02 -0.19700672114E-02 -0.34800480502E-01  0.34999983797E-01  0.00000000000E+00 0. -1.
       22    1    1    2    0    0  0.12582200877E-07 -0.80894070712E-07  0.11559569116E-06  0.14164930734E-06  0.00000000000E+00 0.  1.
</event>
<event>
 5   0  0.1792268E+06  0.9118800E+02  0.7546771E-02  0.1180000E+00
      -11   -1    0    0    0    0  0.00000000000E+00  0.00000000000E+00  0.34996269501E-01  0.35000000000E-01  0.51099999109E-03 0. -1.
       11   -1    0    0    0    0 -0.00000000000E+00 -0.00000000000E+00 -0.34996269501E-01  0.35000000000E-01  0.51099999109E-03 0.  1.
       22    1    1    2    0    0 -0.77837632615E-02  0.20927252977E-01  0.26950634712E-01  0.34998194226E-01  0.00000000000E+00 0. -1.
       22    1    1    2    0    0  0.77828908130E-02 -0.20927754720E-01 -0.26952469471E-01  0.34999713108E-01  0.00000000000E+00 0.  1.
       22    1    1    2    0    0  0.87244849389E-06  0.50174285191E-06  0.18347591976E-05  0.20926666187E-05  0.00000000000E+00 0.  1.
</event>
<event>
 5   0  0.1792268E+06  0.9118800E+02  0.7546771E-02  0.1180000E+00
      -11   -1    0    0    0    0  0.00000000000E+00  0.00000000000E+00  0.34996269501E-01  0.35000000000E-01  0.51099999109E-03 0.  1.
       11   -1    0    0    0    0 -0.00000000000E+00 -0.00000000000E+00 -0.34996269501E-01  0.35000000000E-01  0.51099999109E-03 0. -1.
       22    1    1    2    0    0  0.37656597230E-03  0.51465553916E-02  0.33538677012E-01  0.33933341863E-01  0.00000000000E+00 0.  1.
       22    1    1    2    0    0 -0.36211578839E-03 -0.51844218800E-02 -0.34608263748E-01  0.34996303772E-01  0.00000000000E+00 0. -1.
       22    1    1    2    0    0 -0.14450183913E-04  0.37866488443E-04  0.10695867363E-02  0.10703543643E-02  0.00000000000E+00 0.  1.
</event>
<event>
 5   0  0.1792268E+06  0.9118800E+02  0.7546771E-02  0.1180000E+00
      -11   -1    0    0    0    0  0.00000000000E+00  0.00000000000E+00  0.34996269501E-01  0.35000000000E-01  0.51099999109E-03 0. -1.
       11   -1    0    0    0    0 -0.00000000000E+00 -0.00000000000E+00 -0.34996269501E-01  0.35000000000E-01  0.51099999109E-03 0.  1.
       22    1    1    2    0    0 -0.23170601820E-02 -0.13911219485E-02 -0.16153821665E-01  0.16378337600E-01  0.00000000000E+00 0.  1.
       22    1    1    2    0    0  0.46612283163E-03  0.52129479727E-02  0.34446873269E-01  0.34842203935E-01  0.00000000000E+00 0. -1.
       22    1    1    2    0    0  0.18509373504E-02 -0.38218260242E-02 -0.18293051604E-01  0.18779458464E-01  0.00000000000E+00 0.  1.
</event>
<event>
 5   0  0.1792268E+06  0.9118800E+02  0.7546771E-02  0.1180000E+00
      -11   -1    0    0    0    0  0.00000000000E+00  0.00000000000E+00  0.34996269501E-01  0.35000000000E-01  0.51099999109E-03 0.  1.
       11   -1    0    0    0    0 -0.00000000000E+00 -0.00000000000E+00 -0.34996269501E-01  0.35000000000E-01  0.51099999109E-03 0.  1.
       22    1    1    2    0    0 -0.69836673037E-12  0.29948950021E-11 -0.35001338095E-01  0.34999990450E-01  0.00000000000E+00 0.  1.
       22    1    1    2    0    0 -0.96256519175E-08  0.41278909155E-07  0.37477823040E-07  0.56579048557E-07  0.00000000000E+00 0. -1.
       22    1    1    2    0    0  0.96263502842E-08 -0.41281904050E-07  0.35001300617E-01  0.34999952971E-01  0.00000000000E+00 0.  1.
</event>
<event>
 5   0  0.1792268E+06  0.9118800E+02  0.7546771E-02  0.1180000E+00
      -11   -1    0    0    0    0  0.00000000000E+00  0.00000000000E+00  0.34996269501E-01  0.35000000000E-01  0.51099999109E-03 0. -1.
       11   -1    0    0    0    0 -0.00000000000E+00 -0.00000000000E+00 -0.34996269501E-01  0.35000000000E-01  0.51099999109E-03 0.  1.
       22    1    1    2    0    0  0.10439354212E-01  0.90148253939E-03 -0.33393490683E-01  0.34998828653E-01  0.00000000000E+00 0.  1.
       22    1    1    2    0    0 -0.10437674492E-01 -0.90291744148E-03  0.33333268427E-01  0.34940908585E-01  0.00000000000E+00 0. -1.
       22    1    1    2    0    0 -0.16797198842E-05  0.14349020894E-05  0.60222255396E-04  0.60262761702E-04  0.00000000000E+00 0.  1.
</event>
<event>
 5   0  0.1792268E+06  0.9118800E+02  0.7546771E-02  0.1180000E+00
      -11   -1    0    0    0    0  0.00000000000E+00  0.00000000000E+00  0.34996269501E-01  0.35000000000E-01  0.51099999109E-03 0.  1.
       11   -1    0    0    0    0 -0.00000000000E+00 -0.00000000000E+00 -0.34996269501E-01  0.35000000000E-01  0.51099999109E-03 0. -1.
       22    1    1    2    0    0  0.14175190566E-02 -0.39550909616E-03 -0.19288380304E-02  0.24261500095E-02  0.00000000000E+00 0.  1.
       22    1    1    2    0    0 -0.10918155189E-02 -0.79530977404E-03 -0.32797635075E-01  0.32825438995E-01  0.00000000000E+00 0. -1.
       22    1    1    2    0    0 -0.32570353769E-03  0.11908188702E-02  0.34726473105E-01  0.34748410995E-01  0.00000000000E+00 0.  1.
</event>
<event>
 5   0  0.1792268E+06  0.9118800E+02  0.7546771E-02  0.1180000E+00
      -11   -1    0    0    0    0  0.00000000000E+00  0.00000000000E+00  0.34996269501E-01  0.35000000000E-01  0.51099999109E-03 0.  1.
       11   -1    0    0    0    0 -0.00000000000E+00 -0.00000000000E+00 -0.34996269501E-01  0.35000000000E-01  0.51099999109E-03 0. -1.
       22    1    1    2    0    0 -0.16493189830E-06 -0.30221653540E-06  0.79906951153E-05  0.79981088884E-05  0.00000000000E+00 0.  1.
       22    1    1    2    0    0  0.36154515024E-02  0.21647796318E-01 -0.27262547036E-01  0.34999214932E-01  0.00000000000E+00 0. -1.
       22    1    1    2    0    0 -0.36152865705E-02 -0.21647494101E-01  0.27254556340E-01  0.34992786959E-01  0.00000000000E+00 0.  1.
</event>
<event>
 5   0  0.1792268E+06  0.9118800E+02  0.7546771E-02  0.1180000E+00
      -11   -1    0    0    0    0  0.00000000000E+00  0.00000000000E+00  0.34996269501E-01  0.35000000000E-01  0.51099999109E-03 0.  1.
       11   -1    0    0    0    0 -0.00000000000E+00 -0.00000000000E+00 -0.34996269501E-01  0.35000000000E-01  0.51099999109E-03 0. -1.
       22    1    1    2    0    0  0.34991666696E-02 -0.10501848749E-01  0.33146387945E-01  0.34945901453E-01  0.00000000000E+00 0.  1.
       22    1    1    2    0    0  0.35965685046E-04 -0.12565750519E-03 -0.10829322687E-02  0.10907912897E-02  0.00000000000E+00 0. -1.
       22    1    1    2    0    0 -0.35351323546E-02  0.10627506254E-01 -0.32063455677E-01  0.33963307258E-01  0.00000000000E+00 0. -1.
</event>
<event>
 5   0  0.1792268E+06  0.9118800E+02  0.7546771E-02  0.1180000E+00
      -11   -1    0    0    0    0  0.00000000000E+00  0.00000000000E+00  0.34996269501E-01  0.35000000000E-01  0.51099999109E-03 0.  1.
       11   -1    0    0    0    0 -0.00000000000E+00 -0.00000000000E+00 -0.34996269501E-01  0.35000000000E-01  0.51099999109E-03 0. -1.
       22    1    1    2    0    0 -0.69377428410E-02 -0.10457294663E-02  0.34281186567E-01  0.34991793013E-01  0.00000000000E+00 0.  1.
       22    1    1    2    0    0  0.69380069097E-02  0.10456682558E-02 -0.34289449959E-01  0.34999939150E-01  0.00000000000E+00 0. -1.
       22    1    1    2    0    0 -0.26406875344E-06  0.61210567830E-07  0.82633922614E-05  0.82678371238E-05  0.00000000000E+00 0. -1.
</event>
<event>
 5   0  0.1792268E+06  0.9118800E+02  0.7546771E-02  0.1180000E+00
      -11   -1    0    0    0    0  0.00000000000E+00  0.00000000000E+00  0.34996269501E-01  0.35000000000E-01  0.51099999109E-03 0.  1.
       11   -1    0    0    0    0 -0.00000000000E+00 -0.00000000000E+00 -0.34996269501E-01  0.35000000000E-01  0.51099999109E-03 0. -1.
       22    1    1    2    0    0  0.27707539389E-02 -0.42929184944E-02 -0.34571704284E-01  0.34947231131E-01  0.00000000000E+00 0. -1.
       22    1    1    2    0    0 -0.57281470461E-04  0.13150423878E-04 -0.40627597273E-04  0.71447198451E-04  0.00000000000E+00 0.  1.
       22    1    1    2    0    0 -0.27134724684E-02  0.42797680705E-02  0.34612331881E-01  0.34981321671E-01  0.00000000000E+00 0.  1.
</event>
<event>
 5   0  0.1792268E+06  0.9118800E+02  0.7546771E-02  0.1180000E+00
      -11   -1    0    0    0    0  0.00000000000E+00  0.00000000000E+00  0.34996269501E-01  0.35000000000E-01  0.51099999109E-03 0.  1.
       11   -1    0    0    0    0 -0.00000000000E+00 -0.00000000000E+00 -0.34996269501E-01  0.35000000000E-01  0.51099999109E-03 0. -1.
       22    1    1    2    0    0 -0.42177423634E-03 -0.17488709621E-01  0.27718021514E-01  0.32776845095E-01  0.00000000000E+00 0.  1.
       22    1    1    2    0    0 -0.26293263779E-03  0.11221270564E-02  0.25547022967E-02  0.28026427755E-02  0.00000000000E+00 0.  1.
       22    1    1    2    0    0  0.68470687413E-03  0.16366582564E-01 -0.30272723811E-01  0.34420512130E-01  0.00000000000E+00 0. -1.
</event>
<event>
 5   0  0.1792268E+06  0.9118800E+02  0.7546771E-02  0.1180000E+00
      -11   -1    0    0    0    0  0.00000000000E+00  0.00000000000E+00  0.34996269501E-01  0.35000000000E-01  0.51099999109E-03 0.  1.
       11   -1    0    0    0    0 -0.00000000000E+00 -0.00000000000E+00 -0.34996269501E-01  0.35000000000E-01  0.51099999109E-03 0. -1.
       22    1    1    2    0    0  0.17314707914E-01 -0.75449235066E-02 -0.26657580036E-01  0.32670346712E-01  0.00000000000E+00 0. -1.
       22    1    1    2    0    0  0.14541472367E-02  0.52119701153E-03  0.12969171697E-01  0.13060842431E-01  0.00000000000E+00 0.  1.
       22    1    1    2    0    0 -0.18768855151E-01  0.70237264951E-02  0.13688408339E-01  0.24268810857E-01  0.00000000000E+00 0.  1.
</event>
<event>
 5   0  0.1792268E+06  0.9118800E+02  0.7546771E-02  0.1180000E+00
      -11   -1    0    0    0    0  0.00000000000E+00  0.00000000000E+00  0.34996269501E-01  0.35000000000E-01  0.51099999109E-03 0. -1.
       11   -1    0    0    0    0 -0.00000000000E+00 -0.00000000000E+00 -0.34996269501E-01  0.35000000000E-01  0.51099999109E-03 0.  1.
       22    1    1    2    0    0 -0.11406034665E-07 -0.52776877401E-08  0.29409506404E-06  0.29436347992E-06  0.00000000000E+00 0.  1.
       22    1    1    2    0    0 -0.58236219713E-02 -0.38102593822E-02 -0.34301123146E-01  0.34999995693E-01  0.00000000000E+00 0.  1.
       22    1    1    2    0    0  0.58236333773E-02  0.38102646599E-02  0.34300829051E-01  0.34999709943E-01  0.00000000000E+00 0. -1.
</event>
<event>
 5   0  0.1792268E+06  0.9118800E+02  0.7546771E-02  0.1180000E+00
      -11   -1    0    0    0    0  0.00000000000E+00  0.00000000000E+00  0.34996269501E-01  0.35000000000E-01  0.51099999109E-03 0.  1.
       11   -1    0    0    0    0 -0.00000000000E+00 -0.00000000000E+00 -0.34996269501E-01  0.35000000000E-01  0.51099999109E-03 0. -1.
       22    1    1    2    0    0 -0.98878471191E-03 -0.98858534684E-03  0.22416896220E-02  0.26420008622E-02  0.00000000000E+00 0.  1.
       22    1    1    2    0    0  0.11842839657E-02 -0.56171846514E-03  0.32527408025E-01  0.32553806674E-01  0.00000000000E+00 0.  1.
       22    1    1    2    0    0 -0.19549925384E-03  0.15503038120E-02 -0.34769097647E-01  0.34804192464E-01  0.00000000000E+00 0. -1.
</event>
<event>
 5   0  0.1792268E+06  0.9118800E+02  0.7546771E-02  0.1180000E+00
      -11   -1    0    0    0    0  0.00000000000E+00  0.00000000000E+00  0.34996269501E-01  0.35000000000E-01  0.51099999109E-03 0.  1.
       11   -1    0    0    0    0 -0.00000000000E+00 -0.00000000000E+00 -0.34996269501E-01  0.35000000000E-01  0.51099999109E-03 0. -1.
       22    1    1    2    0    0 -0.80229964886E-03  0.15829740728E-01 -0.24200905933E-01  0.28929366122E-01  0.00000000000E+00 0. -1.
       22    1    1    2    0    0  0.24741693436E-02 -0.15248538295E-01  0.30682377715E-01  0.34351822897E-01  0.00000000000E+00 0.  1.
       22    1    1    2    0    0 -0.16718696947E-02 -0.58120243275E-03 -0.64814717824E-02  0.67188109819E-02  0.00000000000E+00 0.  1.
</event>
<event>
 5   0  0.1792268E+06  0.9118800E+02  0.7546771E-02  0.1180000E+00
      -11   -1    0    0    0    0  0.00000000000E+00  0.00000000000E+00  0.34996269501E-01  0.35000000000E-01  0.51099999109E-03 0. -1.
       11   -1    0    0    0    0 -0.00000000000E+00 -0.00000000000E+00 -0.34996269501E-01  0.35000000000E-01  0.51099999109E-03 0.  1.
       22    1    1    2    0    0 -0.31299397677E-02  0.68841604003E-02  0.33864626296E-01  0.34698719018E-01  0.00000000000E+00 0. -1.
       22    1    1    2    0    0 -0.91321830826E-03 -0.35228427595E-03 -0.57160492442E-03  0.11334919846E-02  0.00000000000E+00 0.  1.
       22    1    1    2    0    0  0.40431580759E-02 -0.65318761244E-02 -0.33293021371E-01  0.34167788997E-01  0.00000000000E+00 0.  1.
</event>
<event>
 5   0  0.1792268E+06  0.9118800E+02  0.7546771E-02  0.1180000E+00
      -11   -1    0    0    0    0  0.00000000000E+00  0.00000000000E+00  0.34996269501E-01  0.35000000000E-01  0.51099999109E-03 0.  1.
       11   -1    0    0    0    0 -0.00000000000E+00 -0.00000000000E+00 -0.34996269501E-01  0.35000000000E-01  0.51099999109E-03 0.  1.
       22    1    1    2    0    0  0.12826032007E-03 -0.73841224012E-03  0.34848461762E-01  0.34856520058E-01  0.00000000000E+00 0.  1.
       22    1    1    2    0    0  0.19919540009E-02  0.57485162838E-03 -0.10525982479E-01  0.10728217107E-01  0.00000000000E+00 0.  1.
       22    1    1    2    0    0 -0.21202143209E-02  0.16356061173E-03 -0.24322479283E-01  0.24415262835E-01  0.00000000000E+00 0.  1.
</event>
<event>
 5   0  0.1792268E+06  0.9118800E+02  0.7546771E-02  0.1180000E+00
      -11   -1    0    0    0    0  0.00000000000E+00  0.00000000000E+00  0.34996269501E-01  0.35000000000E-01  0.51099999109E-03 0.  1.
       11   -1    0    0    0    0 -0.00000000000E+00 -0.00000000000E+00 -0.34996269501E-01  0.35000000000E-01  0.51099999109E-03 0. -1.
       22    1    1    2    0    0  0.76178767793E-02  0.96575005744E-02 -0.27237067517E-01  0.29885735910E-01  0.00000000000E+00 0. -1.
       22    1    1    2    0    0 -0.80128965697E-02 -0.95264804352E-02  0.32516809113E-01  0.34818144922E-01  0.00000000000E+00 0.  1.
       22    1    1    2    0    0  0.39501979048E-03 -0.13102013919E-03 -0.52797415964E-02  0.52961191675E-02  0.00000000000E+00 0. -1.
</event>
<event>
 5   0  0.1792268E+06  0.9118800E+02  0.7546771E-02  0.1180000E+00
      -11   -1    0    0    0    0  0.00000000000E+00  0.00000000000E+00  0.34996269501E-01  0.35000000000E-01  0.51099999109E-03 0. -1.
       11   -1    0    0    0    0 -0.00000000000E+00 -0.00000000000E+00 -0.34996269501E-01  0.35000000000E-01  0.51099999109E-03 0.  1.
       22    1    1    2    0    0  0.41412950612E-02  0.12312893652E-01 -0.10952826771E-01  0.16991824186E-01  0.00000000000E+00 0.  1.
       22    1    1    2    0    0 -0.63104196205E-02 -0.14748186667E-01  0.29820152756E-01  0.33861067854E-01  0.00000000000E+00 0. -1.
       22    1    1    2    0    0  0.21691245593E-02  0.24352930149E-02 -0.18867325985E-01  0.19147107961E-01  0.00000000000E+00 0.  1.
</event>
<event>
 5   0  0.1792268E+06  0.9118800E+02  0.7546771E-02  0.1180000E+00
      -11   -1    0    0    0    0  0.00000000000E+00  0.00000000000E+00  0.34996269501E-01  0.35000000000E-01  0.51099999109E-03 0.  1.
       11   -1    0    0    0    0 -0.00000000000E+00 -0.00000000000E+00 -0.34996269501E-01  0.35000000000E-01  0.51099999109E-03 0. -1.
       22    1    1    2    0    0 -0.60609900826E-04 -0.18245012671E-03  0.21396843287E-03  0.28765274044E-03  0.00000000000E+00 0.  1.
       22    1    1    2    0    0 -0.12681996092E-02  0.43586010227E-02 -0.34676465436E-01  0.34972317456E-01  0.00000000000E+00 0. -1.
       22    1    1    2    0    0  0.13288095101E-02 -0.41761508960E-02  0.34462497003E-01  0.34740029803E-01  0.00000000000E+00 0.  1.
</event>
<event>
 5   0  0.1792268E+06  0.9118800E+02  0.7546771E-02  0.1180000E+00
      -11   -1    0    0    0    0  0.00000000000E+00  0.00000000000E+00  0.34996269501E-01  0.35000000000E-01  0.51099999109E-03 0. -1.
       11   -1    0    0    0    0 -0.00000000000E+00 -0.00000000000E+00 -0.34996269501E-01  0.35000000000E-01  0.51099999109E-03 0.  1.
       22    1    1    2    0    0  0.60031425342E-02 -0.29121156972E-01  0.17368843390E-01  0.34434811229E-01  0.00000000000E+00 0.  1.
       22    1    1    2    0    0  0.13773315002E-02  0.12211264215E-02  0.76780698102E-04  0.18423048267E-02  0.00000000000E+00 0. -1.
       22    1    1    2    0    0 -0.73804740344E-02  0.27900030550E-01 -0.17445624088E-01  0.33722883944E-01  0.00000000000E+00 0. -1.
</event>
<event>
 5   0  0.1792268E+06  0.9118800E+02  0.7546771E-02  0.1180000E+00
      -11   -1    0    0    0    0  0.00000000000E+00  0.00000000000E+00  0.34996269501E-01  0.35000000000E-01  0.51099999109E-03 0. -1.
       11   -1    0    0    0    0 -0.00000000000E+00 -0.00000000000E+00 -0.34996269501E-01  0.35000000000E-01  0.51099999109E-03 0.  1.
       22    1    1    2    0    0  0.18842170040E-02  0.14699655297E-02  0.34918114901E-01  0.34999797437E-01  0.00000000000E+00 0. -1.
       22    1    1    2    0    0 -0.18842282727E-02 -0.14699799857E-02 -0.34918316677E-01  0.34999999956E-01  0.00000000000E+00 0.  1.
       22    1    1    2    0    0  0.11268694732E-07  0.14455951476E-07  0.20177590076E-06  0.20260669323E-06  0.00000000000E+00 0.  1.
</event>
<event>
 5   0  0.1792268E+06  0.9118800E+02  0.7546771E-02  0.1180000E+00
      -11   -1    0    0    0    0  0.00000000000E+00  0.00000000000E+00  0.34996269501E-01  0.35000000000E-01  0.51099999109E-03 0.  1.
       11   -1    0    0    0    0 -0.00000000000E+00 -0.00000000000E+00 -0.34996269501E-01  0.35000000000E-01  0.51099999109E-03 0. -1.
       22    1    1    2    0    0  0.14567994886E-04  0.71716726021E-05  0.53152909996E-03  0.53177706181E-03  0.00000000000E+00 0. -1.
       22    1    1    2    0    0 -0.46424976088E-03 -0.72140473808E-03 -0.34989450989E-01  0.34999966187E-01  0.00000000000E+00 0. -1.
       22    1    1    2    0    0  0.44968176600E-03  0.71423306548E-03  0.34457921889E-01  0.34468256751E-01  0.00000000000E+00 0.  1.
</event>
<event>
 5   0  0.1792268E+06  0.9118800E+02  0.7546771E-02  0.1180000E+00
      -11   -1    0    0    0    0  0.00000000000E+00  0.00000000000E+00  0.34996269501E-01  0.35000000000E-01  0.51099999109E-03 0. -1.
       11   -1    0    0    0    0 -0.00000000000E+00 -0.00000000000E+00 -0.34996269501E-01  0.35000000000E-01  0.51099999109E-03 0.  1.
       22    1    1    2    0    0 -0.11727406701E-08 -0.39396937507E-09  0.56891580956E-08  0.58221175173E-08  0.00000000000E+00 0.  1.
       22    1    1    2    0    0 -0.13604192814E-03 -0.82015732697E-03 -0.34990124741E-01  0.34999999926E-01  0.00000000000E+00 0.  1.
       22    1    1    2    0    0  0.13604310088E-03  0.82015772094E-03  0.34990119051E-01  0.34999994252E-01  0.00000000000E+00 0. -1.
</event>
<event>
 5   0  0.1792268E+06  0.9118800E+02  0.7546771E-02  0.1180000E+00
      -11   -1    0    0    0    0  0.00000000000E+00  0.00000000000E+00  0.34996269501E-01  0.35000000000E-01  0.51099999109E-03 0.  1.
       11   -1    0    0    0    0 -0.00000000000E+00 -0.00000000000E+00 -0.34996269501E-01  0.35000000000E-01  0.51099999109E-03 0. -1.
       22    1    1    2    0    0  0.26084114426E-02  0.24477643206E-02  0.34816318655E-01  0.34999591499E-01  0.00000000000E+00 0.  1.
       22    1    1    2    0    0  0.25490897605E-07 -0.70332713168E-08  0.40843891084E-06  0.40929402225E-06  0.00000000000E+00 0.  1.
       22    1    1    2    0    0 -0.26084369335E-02 -0.24477572873E-02 -0.34816727094E-01  0.34999999207E-01  0.00000000000E+00 0. -1.
</event>
<event>
 5   0  0.1792268E+06  0.9118800E+02  0.7546771E-02  0.1180000E+00
      -11   -1    0    0    0    0  0.00000000000E+00  0.00000000000E+00  0.34996269501E-01  0.35000000000E-01  0.51099999109E-03 0. -1.
       11   -1    0    0    0    0 -0.00000000000E+00 -0.00000000000E+00 -0.34996269501E-01  0.35000000000E-01  0.51099999109E-03 0.  1.
       22    1    1    2    0    0  0.29627128942E-03 -0.42772660399E-03 -0.59651405124E-03  0.79155273862E-03  0.00000000000E+00 0. -1.
       22    1    1    2    0    0  0.61949598895E-02 -0.18966571681E-01 -0.27796620300E-01  0.34216377211E-01  0.00000000000E+00 0.  1.
       22    1    1    2    0    0 -0.64912311789E-02  0.19394298285E-01  0.28393134351E-01  0.34992070051E-01  0.00000000000E+00 0. -1.
</event>
<event>
 5   0  0.1792268E+06  0.9118800E+02  0.7546771E-02  0.1180000E+00
      -11   -1    0    0    0    0  0.00000000000E+00  0.00000000000E+00  0.34996269501E-01  0.35000000000E-01  0.51099999109E-03 0.  1.
       11   -1    0    0    0    0 -0.00000000000E+00 -0.00000000000E+00 -0.34996269501E-01  0.35000000000E-01  0.51099999109E-03 0. -1.
       22    1    1    2    0    0  0.38763046355E-03  0.70037405972E-04  0.19244568668E-02  0.19643565986E-02  0.00000000000E+00 0.  1.
       22    1    1    2    0    0 -0.38763046355E-03 -0.70037405972E-04 -0.34979346779E-01  0.34981564626E-01  0.00000000000E+00 0. -1.
       22    1    1    2    0    0 -0.00000000000E+00 -0.00000000000E+00  0.33054889912E-01  0.33054078775E-01  0.00000000000E+00 0.  1.
</event>
<event>
 5   0  0.1792268E+06  0.9118800E+02  0.7546771E-02  0.1180000E+00
      -11   -1    0    0    0    0  0.00000000000E+00  0.00000000000E+00  0.34996269501E-01  0.35000000000E-01  0.51099999109E-03 0.  1.
       11   -1    0    0    0    0 -0.00000000000E+00 -0.00000000000E+00 -0.34996269501E-01  0.35000000000E-01  0.51099999109E-03 0. -1.
       22    1    1    2    0    0  0.69292858102E-03 -0.14850329465E-02  0.34943230905E-01  0.34981636025E-01  0.00000000000E+00 0.  1.
       22    1    1    2    0    0 -0.77978999859E-03  0.14856083752E-02 -0.34852113850E-01  0.34892476905E-01  0.00000000000E+00 0. -1.
       22    1    1    2    0    0  0.86861417568E-04 -0.57542865074E-06 -0.91117054626E-04  0.12588707092E-03  0.00000000000E+00 0. -1.
</event>
<event>
 5   0  0.1792268E+06  0.9118800E+02  0.7546771E-02  0.1180000E+00
      -11   -1    0    0    0    0  0.00000000000E+00  0.00000000000E+00  0.34996269501E-01  0.35000000000E-01  0.51099999109E-03 0.  1.
       11   -1    0    0    0    0 -0.00000000000E+00 -0.00000000000E+00 -0.34996269501E-01  0.35000000000E-01  0.51099999109E-03 0. -1.
       22    1    1    2    0    0 -0.53305456023E-10 -0.10504288079E-08  0.92505744967E-09  0.14007046217E-08  0.00000000000E+00 0.  1.
       22    1    1    2    0    0  0.42814046033E-02 -0.76622742858E-02 -0.33881545152E-01  0.34999999636E-01  0.00000000000E+00 0. -1.
       22    1    1    2    0    0 -0.42814045500E-02  0.76622753362E-02  0.33881544227E-01  0.34999998964E-01  0.00000000000E+00 0.  1.
</event>
<event>
 5   0  0.1792268E+06  0.9118800E+02  0.7546771E-02  0.1180000E+00
      -11   -1    0    0    0    0  0.00000000000E+00  0.00000000000E+00  0.34996269501E-01  0.35000000000E-01  0.51099999109E-03 0. -1.
       11   -1    0    0    0    0 -0.00000000000E+00 -0.00000000000E+00 -0.34996269501E-01  0.35000000000E-01  0.51099999109E-03 0.  1.
       22    1    1    2    0    0  0.14463236244E-02  0.27753535339E-02  0.34812766716E-01  0.34953156735E-01  0.00000000000E+00 0. -1.
       22    1    1    2    0    0 -0.97697272925E-03  0.18818184071E-03 -0.65293570691E-02  0.66047249643E-02  0.00000000000E+00 0.  1.
       22    1    1    2    0    0 -0.46935089520E-03 -0.29635353746E-02 -0.28283409647E-01  0.28442118301E-01  0.00000000000E+00 0.  1.
</event>
<event>
 5   0  0.1792268E+06  0.9118800E+02  0.7546771E-02  0.1180000E+00
      -11   -1    0    0    0    0  0.00000000000E+00  0.00000000000E+00  0.34996269501E-01  0.35000000000E-01  0.51099999109E-03 0.  1.
       11   -1    0    0    0    0 -0.00000000000E+00 -0.00000000000E+00 -0.34996269501E-01  0.35000000000E-01  0.51099999109E-03 0. -1.
       22    1    1    2    0    0  0.22275599042E-03 -0.19469363050E-02  0.34837771382E-01  0.34892843049E-01  0.00000000000E+00 0.  1.
       22    1    1    2    0    0  0.87928786118E-03  0.14132712082E-02 -0.31627927960E-01  0.31671695719E-01  0.00000000000E+00 0. -1.
       22    1    1    2    0    0 -0.11020438516E-02  0.53366509675E-03 -0.32098434215E-02  0.34354612320E-02  0.00000000000E+00 0. -1.
</event>
<event>
 5   0  0.1792268E+06  0.9118800E+02  0.7546771E-02  0.1180000E+00
      -11   -1    0    0    0    0  0.00000000000E+00  0.00000000000E+00  0.34996269501E-01  0.35000000000E-01  0.51099999109E-03 0. -1.
       11   -1    0    0    0    0 -0.00000000000E+00 -0.00000000000E+00 -0.34996269501E-01  0.35000000000E-01  0.51099999109E-03 0. -1.
       22    1    1    2    0    0 -0.53180247049E-06  0.15463234104E-07  0.34999605087E-01  0.34998837335E-01  0.00000000000E+00 0. -1.
       22    1    1    2    0    0  0.34176394689E-10 -0.99374790687E-12 -0.35000706886E-01  0.34999939154E-01  0.00000000000E+00 0. -1.
       22    1    1    2    0    0  0.53176829409E-06 -0.15462240356E-07  0.11017997356E-05  0.12235110367E-05  0.00000000000E+00 0.  1.
</event>
<event>
 5   0  0.1792268E+06  0.9118800E+02  0.7546771E-02  0.1180000E+00
      -11   -1    0    0    0    0  0.00000000000E+00  0.00000000000E+00  0.34996269501E-01  0.35000000000E-01  0.51099999109E-03 0. -1.
       11   -1    0    0    0    0 -0.00000000000E+00 -0.00000000000E+00 -0.34996269501E-01  0.35000000000E-01  0.51099999109E-03 0.  1.
       22    1    1    2    0    0 -0.13742581525E-02  0.64768698082E-02  0.34236960937E-01  0.34871305140E-01  0.00000000000E+00 0. -1.
       22    1    1    2    0    0  0.29780559756E-03 -0.63868048154E-02 -0.32140679556E-01  0.32770463016E-01  0.00000000000E+00 0.  1.
       22    1    1    2    0    0  0.10764525549E-02 -0.90064992791E-04 -0.20962813803E-02  0.23582318443E-02  0.00000000000E+00 0.  1.
</event>
<event>
 5   0  0.1792268E+06  0.9118800E+02  0.7546771E-02  0.1180000E+00
      -11   -1    0    0    0    0  0.00000000000E+00  0.00000000000E+00  0.34996269501E-01  0.35000000000E-01  0.51099999109E-03 0. -1.
       11   -1    0    0    0    0 -0.00000000000E+00 -0.00000000000E+00 -0.34996269501E-01  0.35000000000E-01  0.51099999109E-03 0.  1.
       22    1    1    2    0    0 -0.19975200366E-02 -0.24305136837E-02  0.16599241220E-02  0.35570818312E-02  0.00000000000E+00 0. -1.
       22    1    1    2    0    0  0.34248306901E-02  0.35541363201E-03 -0.33915162409E-01  0.34089500221E-01  0.00000000000E+00 0.  1.
       22    1    1    2    0    0 -0.14273106535E-02  0.20751000517E-02  0.32255238287E-01  0.32353417947E-01  0.00000000000E+00 0. -1.
</event>
<event>
 5   0  0.1792268E+06  0.9118800E+02  0.7546771E-02  0.1180000E+00
      -11   -1    0    0    0    0  0.00000000000E+00  0.00000000000E+00  0.34996269501E-01  0.35000000000E-01  0.51099999109E-03 0. -1.
       11   -1    0    0    0    0 -0.00000000000E+00 -0.00000000000E+00 -0.34996269501E-01  0.35000000000E-01  0.51099999109E-03 0.  1.
       22    1    1    2    0    0  0.70123084569E-02 -0.32534941068E-01  0.96250979549E-02  0.34645885337E-01  0.00000000000E+00 0.  1.
       22    1    1    2    0    0 -0.39650118097E-04 -0.33318099836E-04 -0.93012207049E-03  0.93156282324E-03  0.00000000000E+00 0. -1.
       22    1    1    2    0    0 -0.69726583388E-02  0.32568259167E-01 -0.86949758844E-02  0.34422551839E-01  0.00000000000E+00 0. -1.
</event>
<event>
 5   0  0.1792268E+06  0.9118800E+02  0.7546771E-02  0.1180000E+00
      -11   -1    0    0    0    0  0.00000000000E+00  0.00000000000E+00  0.34996269501E-01  0.35000000000E-01  0.51099999109E-03 0. -1.
       11   -1    0    0    0    0 -0.00000000000E+00 -0.00000000000E+00 -0.34996269501E-01  0.35000000000E-01  0.51099999109E-03 0. -1.
       22    1    1    2    0    0  0.77444536734E-06  0.10860314797E-05  0.23093546019E-04  0.23132036178E-04  0.00000000000E+00 0.  1.
       22    1    1    2    0    0 -0.26652656796E-03  0.64486994154E-04  0.34975814559E-01  0.34976889499E-01  0.00000000000E+00 0. -1.
       22    1    1    2    0    0  0.26575212259E-03 -0.65573025633E-04 -0.34998908105E-01  0.34999978465E-01  0.00000000000E+00 0. -1.
</event>
<event>
 5   0  0.1792268E+06  0.9118800E+02  0.7546771E-02  0.1180000E+00
      -11   -1    0    0    0    0  0.00000000000E+00  0.00000000000E+00  0.34996269501E-01  0.35000000000E-01  0.51099999109E-03 0. -1.
       11   -1    0    0    0    0 -0.00000000000E+00 -0.00000000000E+00 -0.34996269501E-01  0.35000000000E-01  0.51099999109E-03 0.  1.
       22    1    1    2    0    0  0.10533957279E-02  0.25602190703E-02  0.34588012351E-01  0.34698630558E-01  0.00000000000E+00 0. -1.
       22    1    1    2    0    0  0.70294235945E-03 -0.40061857682E-04 -0.14149674373E-03  0.71816031750E-03  0.00000000000E+00 0.  1.
       22    1    1    2    0    0 -0.17563380874E-02 -0.25201572126E-02 -0.34446515607E-01  0.34583209124E-01  0.00000000000E+00 0.  1.
</event>
<event>
 5   0  0.1792268E+06  0.9118800E+02  0.7546771E-02  0.1180000E+00
      -11   -1    0    0    0    0  0.00000000000E+00  0.00000000000E+00  0.34996269501E-01  0.35000000000E-01  0.51099999109E-03 0. -1.
       11   -1    0    0    0    0 -0.00000000000E+00 -0.00000000000E+00 -0.34996269501E-01  0.35000000000E-01  0.51099999109E-03 0.  1.
       22    1    1    2    0    0  0.45238386263E-06  0.54866460581E-07  0.44695193721E-06  0.63830049494E-06  0.00000000000E+00 0. -1.
       22    1    1    2    0    0  0.52916700314E-02  0.21064165945E-02 -0.34533343628E-01  0.34999865496E-01  0.00000000000E+00 0.  1.
       22    1    1    2    0    0 -0.52921224153E-02 -0.21064714609E-02  0.34532896676E-01  0.34999496204E-01  0.00000000000E+00 0. -1.
</event>
<event>
 5   0  0.1792268E+06  0.9118800E+02  0.7546771E-02  0.1180000E+00
      -11   -1    0    0    0    0  0.00000000000E+00  0.00000000000E+00  0.34996269501E-01  0.35000000000E-01  0.51099999109E-03 0. -1.
       11   -1    0    0    0    0 -0.00000000000E+00 -0.00000000000E+00 -0.34996269501E-01  0.35000000000E-01  0.51099999109E-03 0. -1.
       22    1    1    2    0    0  0.58590950532E-02 -0.90267018520E-02  0.32846007595E-01  0.34564006655E-01  0.00000000000E+00 0. -1.
       22    1    1    2    0    0 -0.23065305438E-02  0.68303661609E-02 -0.28542650993E-01  0.29439037192E-01  0.00000000000E+00 0. -1.
       22    1    1    2    0    0 -0.35525645094E-02  0.21963356911E-02 -0.43033566013E-02  0.59969561529E-02  0.00000000000E+00 0. -1.
</event>
<event>
 5   0  0.1792268E+06  0.9118800E+02  0.7546771E-02  0.1180000E+00
      -11   -1    0    0    0    0  0.00000000000E+00  0.00000000000E+00  0.34996269501E-01  0.35000000000E-01  0.51099999109E-03 0. -1.
       11   -1    0    0    0    0 -0.00000000000E+00 -0.00000000000E+00 -0.34996269501E-01  0.35000000000E-01  0.51099999109E-03 0.  1.
       22    1    1    2    0    0  0.53676842643E-03  0.13396229653E-03  0.34995615381E-01  0.34999988030E-01  0.00000000000E+00 0. -1.
       22    1    1    2    0    0 -0.65971630889E-08 -0.25259457692E-07 -0.20495699667E-08  0.26187086527E-07  0.00000000000E+00 0. -1.
       22    1    1    2    0    0 -0.53676182927E-03 -0.13393703707E-03 -0.34995613331E-01  0.34999985783E-01  0.00000000000E+00 0.  1.
</event>
<event>
 5   0  0.1792268E+06  0.9118800E+02  0.7546771E-02  0.1180000E+00
      -11   -1    0    0    0    0  0.00000000000E+00  0.00000000000E+00  0.34996269501E-01  0.35000000000E-01  0.51099999109E-03 0. -1.
       11   -1    0    0    0    0 -0.00000000000E+00 -0.00000000000E+00 -0.34996269501E-01  0.35000000000E-01  0.51099999109E-03 0.  1.
       22    1    1    2    0    0 -0.36993033486E-02  0.19777156554E-02  0.27565210431E-01  0.27882557820E-01  0.00000000000E+00 0. -1.
       22    1    1    2    0    0  0.42198056284E-02 -0.14493700506E-02 -0.34679125094E-01  0.34964970332E-01  0.00000000000E+00 0.  1.
       22    1    1    2    0    0 -0.52050227983E-03 -0.52834560482E-03  0.71139146630E-02  0.71524718478E-02  0.00000000000E+00 0. -1.
</event>
<event>
 5   0  0.1792268E+06  0.9118800E+02  0.7546771E-02  0.1180000E+00
      -11   -1    0    0    0    0  0.00000000000E+00  0.00000000000E+00  0.34996269501E-01  0.35000000000E-01  0.51099999109E-03 0.  1.
       11   -1    0    0    0    0 -0.00000000000E+00 -0.00000000000E+00 -0.34996269501E-01  0.35000000000E-01  0.51099999109E-03 0.  1.
       22    1    1    2    0    0  0.76359418309E-03  0.14708540569E-02  0.34960494964E-01  0.34999752797E-01  0.00000000000E+00 0.  1.
       22    1    1    2    0    0 -0.76358558851E-03 -0.14709073238E-02 -0.34960738323E-01  0.34999997934E-01  0.00000000000E+00 0.  1.
       22    1    1    2    0    0 -0.85945761980E-08  0.53266894206E-07  0.24335933501E-06  0.24926892044E-06  0.00000000000E+00 0.  1.
</event>
<event>
 5   0  0.1792268E+06  0.9118800E+02  0.7546771E-02  0.1180000E+00
      -11   -1    0    0    0    0  0.00000000000E+00  0.00000000000E+00  0.34996269501E-01  0.35000000000E-01  0.51099999109E-03 0. -1.
       11   -1    0    0    0    0 -0.00000000000E+00 -0.00000000000E+00 -0.34996269501E-01  0.35000000000E-01  0.51099999109E-03 0.  1.
       22    1    1    2    0    0 -0.17136539863E-06  0.12697200938E-05  0.30535226884E-05  0.33114280945E-05  0.00000000000E+00 0.  1.
       22    1    1    2    0    0  0.15260745215E-02  0.37174025557E-02  0.34765291591E-01  0.34996763916E-01  0.00000000000E+00 0. -1.
       22    1    1    2    0    0 -0.15259031561E-02 -0.37186722758E-02 -0.34768345114E-01  0.34999924655E-01  0.00000000000E+00 0.  1.
</event>
<event>
 5   0  0.1792268E+06  0.9118800E+02  0.7546771E-02  0.1180000E+00
      -11   -1    0    0    0    0  0.00000000000E+00  0.00000000000E+00  0.34996269501E-01  0.35000000000E-01  0.51099999109E-03 0. -1.
       11   -1    0    0    0    0 -0.00000000000E+00 -0.00000000000E+00 -0.34996269501E-01  0.35000000000E-01  0.51099999109E-03 0.  1.
       22    1    1    2    0    0  0.16930352910E-02 -0.30375404913E-02  0.13126912685E-01  0.13579722287E-01  0.00000000000E+00 0. -1.
       22    1    1    2    0    0  0.44986789287E-03  0.18066522903E-02  0.21562610500E-01  0.21642840507E-01  0.00000000000E+00 0. -1.
       22    1    1    2    0    0 -0.21429031839E-02  0.12308882010E-02 -0.34689523186E-01  0.34777437207E-01  0.00000000000E+00 0.  1.
</event>
<event>
 5   0  0.1792268E+06  0.9118800E+02  0.7546771E-02  0.1180000E+00
      -11   -1    0    0    0    0  0.00000000000E+00  0.00000000000E+00  0.34996269501E-01  0.35000000000E-01  0.51099999109E-03 0.  1.
       11   -1    0    0    0    0 -0.00000000000E+00 -0.00000000000E+00 -0.34996269501E-01  0.35000000000E-01  0.51099999109E-03 0. -1.
       22    1    1    2    0    0 -0.36675192105E-05  0.16744023413E-04 -0.13591714233E-05  0.17194777236E-04  0.00000000000E+00 0.  1.
       22    1    1    2    0    0  0.16553078245E-01  0.42918263126E-02 -0.30527385923E-01  0.34990648233E-01  0.00000000000E+00 0. -1.
       22    1    1    2    0    0 -0.16549410725E-01 -0.43085703360E-02  0.30528745095E-01  0.34992156989E-01  0.00000000000E+00 0.  1.
</event>
<event>
 5   0  0.1792268E+06  0.9118800E+02  0.7546771E-02  0.1180000E+00
      -11   -1    0    0    0    0  0.00000000000E+00  0.00000000000E+00  0.34996269501E-01  0.35000000000E-01  0.51099999109E-03 0. -1.
       11   -1    0    0    0    0 -0.00000000000E+00 -0.00000000000E+00 -0.34996269501E-01  0.35000000000E-01  0.51099999109E-03 0.  1.
       22    1    1    2    0    0  0.15255981254E-02  0.25933616319E-01 -0.21762404021E-01  0.33889262810E-01  0.00000000000E+00 0.  1.
       22    1    1    2    0    0  0.62164559162E-03 -0.14296906366E-02  0.75352016132E-02  0.76947853712E-02  0.00000000000E+00 0. -1.
       22    1    1    2    0    0 -0.21472437170E-02 -0.24503925683E-01  0.14227202407E-01  0.28415951819E-01  0.00000000000E+00 0. -1.
</event>
<event>
 5   0  0.1792268E+06  0.9118800E+02  0.7546771E-02  0.1180000E+00
      -11   -1    0    0    0    0  0.00000000000E+00  0.00000000000E+00  0.34996269501E-01  0.35000000000E-01  0.51099999109E-03 0. -1.
       11   -1    0    0    0    0 -0.00000000000E+00 -0.00000000000E+00 -0.34996269501E-01  0.35000000000E-01  0.51099999109E-03 0. -1.
       22    1    1    2    0    0 -0.34812649625E-09  0.75447718736E-09 -0.35002568443E-01  0.34999947833E-01  0.00000000000E+00 0. -1.
       22    1    1    2    0    0  0.38015098262E-05 -0.82388225899E-05  0.34679907494E-01  0.34677263687E-01  0.00000000000E+00 0. -1.
       22    1    1    2    0    0 -0.38011616997E-05  0.82380681127E-05  0.32266094951E-03  0.32278848018E-03  0.00000000000E+00 0. -1.
</event>
<event>
 5   0  0.1792268E+06  0.9118800E+02  0.7546771E-02  0.1180000E+00
      -11   -1    0    0    0    0  0.00000000000E+00  0.00000000000E+00  0.34996269501E-01  0.35000000000E-01  0.51099999109E-03 0.  1.
       11   -1    0    0    0    0 -0.00000000000E+00 -0.00000000000E+00 -0.34996269501E-01  0.35000000000E-01  0.51099999109E-03 0. -1.
       22    1    1    2    0    0  0.87721200141E-04 -0.13870755484E-02  0.76620623311E-02  0.77870965547E-02  0.00000000000E+00 0. -1.
       22    1    1    2    0    0  0.99129047596E-03 -0.45861121888E-02 -0.34438726853E-01  0.34756884053E-01  0.00000000000E+00 0. -1.
       22    1    1    2    0    0 -0.10790116761E-02  0.59731877372E-02  0.26776664522E-01  0.27456019392E-01  0.00000000000E+00 0.  1.
</event>
<event>
 5   0  0.1792268E+06  0.9118800E+02  0.7546771E-02  0.1180000E+00
      -11   -1    0    0    0    0  0.00000000000E+00  0.00000000000E+00  0.34996269501E-01  0.35000000000E-01  0.51099999109E-03 0. -1.
       11   -1    0    0    0    0 -0.00000000000E+00 -0.00000000000E+00 -0.34996269501E-01  0.35000000000E-01  0.51099999109E-03 0.  1.
       22    1    1    2    0    0 -0.26956199331E-02  0.18754810794E-02 -0.33991000299E-01  0.34149259105E-01  0.00000000000E+00 0.  1.
       22    1    1    2    0    0  0.21493435053E-02 -0.15796193963E-02  0.34759975796E-01  0.34862168497E-01  0.00000000000E+00 0. -1.
       22    1    1    2    0    0  0.54627642777E-03 -0.29586168313E-03 -0.76897549710E-03  0.98857239807E-03  0.00000000000E+00 0. -1.
</event>
<event>
 5   0  0.1792268E+06  0.9118800E+02  0.7546771E-02  0.1180000E+00
      -11   -1    0    0    0    0  0.00000000000E+00  0.00000000000E+00  0.34996269501E-01  0.35000000000E-01  0.51099999109E-03 0. -1.
       11   -1    0    0    0    0 -0.00000000000E+00 -0.00000000000E+00 -0.34996269501E-01  0.35000000000E-01  0.51099999109E-03 0.  1.
       22    1    1    2    0    0  0.48579012023E-08  0.99678243060E-08  0.16039747576E-07  0.19499493013E-07  0.00000000000E+00 0.  1.
       22    1    1    2    0    0 -0.31159803857E-02 -0.23377220594E-02  0.34782531821E-01  0.34999982829E-01  0.00000000000E+00 0. -1.
       22    1    1    2    0    0  0.31159755278E-02  0.23377120915E-02 -0.34782547861E-01  0.34999997671E-01  0.00000000000E+00 0.  1.
</event>
<event>
 5   0  0.1792268E+06  0.9118800E+02  0.7546771E-02  0.1180000E+00
      -11   -1    0    0    0    0  0.00000000000E+00  0.00000000000E+00  0.34996269501E-01  0.35000000000E-01  0.51099999109E-03 0.  1.
       11   -1    0    0    0    0 -0.00000000000E+00 -0.00000000000E+00 -0.34996269501E-01  0.35000000000E-01  0.51099999109E-03 0. -1.
       22    1    1    2    0    0 -0.49840122390E-03 -0.13708934189E-03  0.16002398138E-02  0.16816553539E-02  0.00000000000E+00 0.  1.
       22    1    1    2    0    0 -0.18074114201E-02  0.14834055624E-02  0.33266973966E-01  0.33349044738E-01  0.00000000000E+00 0.  1.
       22    1    1    2    0    0  0.23058126440E-02 -0.13463162205E-02 -0.34867213779E-01  0.34969299908E-01  0.00000000000E+00 0. -1.
</event>
<event>
 5   0  0.1792268E+06  0.9118800E+02  0.7546771E-02  0.1180000E+00
      -11   -1    0    0    0    0  0.00000000000E+00  0.00000000000E+00  0.34996269501E-01  0.35000000000E-01  0.51099999109E-03 0. -1.
       11   -1    0    0    0    0 -0.00000000000E+00 -0.00000000000E+00 -0.34996269501E-01  0.35000000000E-01  0.51099999109E-03 0.  1.
       22    1    1    2    0    0  0.16979040281E-04  0.36583193953E-04 -0.14845485731E-02  0.14850963214E-02  0.00000000000E+00 0. -1.
       22    1    1    2    0    0 -0.10656690152E-01  0.12686709797E-02  0.33276577294E-01  0.34964341370E-01  0.00000000000E+00 0. -1.
       22    1    1    2    0    0  0.10639711112E-01 -0.13052541737E-02 -0.31792028721E-01  0.33550562308E-01  0.00000000000E+00 0.  1.
</event>
<event>
 5   0  0.1792268E+06  0.9118800E+02  0.7546771E-02  0.1180000E+00
      -11   -1    0    0    0    0  0.00000000000E+00  0.00000000000E+00  0.34996269501E-01  0.35000000000E-01  0.51099999109E-03 0. -1.
       11   -1    0    0    0    0 -0.00000000000E+00 -0.00000000000E+00 -0.34996269501E-01  0.35000000000E-01  0.51099999109E-03 0.  1.
       22    1    1    2    0    0  0.54082368198E-03  0.17115628900E-04  0.27291636120E-03  0.60602519746E-03  0.00000000000E+00 0. -1.
       22    1    1    2    0    0 -0.28985894172E-02  0.17117065986E-02 -0.34689993633E-01  0.34852939881E-01  0.00000000000E+00 0.  1.
       22    1    1    2    0    0  0.23577657352E-02 -0.17288222275E-02  0.34417077272E-01  0.34541034922E-01  0.00000000000E+00 0. -1.
</event>
<event>
 5   0  0.1792268E+06  0.9118800E+02  0.7546771E-02  0.1180000E+00
      -11   -1    0    0    0    0  0.00000000000E+00  0.00000000000E+00  0.34996269501E-01  0.35000000000E-01  0.51099999109E-03 0.  1.
       11   -1    0    0    0    0 -0.00000000000E+00 -0.00000000000E+00 -0.34996269501E-01  0.35000000000E-01  0.51099999109E-03 0. -1.
       22    1    1    2    0    0 -0.17299106362E-03  0.98115770989E-03  0.34935380937E-01  0.34949584226E-01  0.00000000000E+00 0.  1.
       22    1    1    2    0    0  0.17289441834E-04  0.85313967971E-05  0.48500332239E-04  0.52191874440E-04  0.00000000000E+00 0.  1.
       22    1    1    2    0    0  0.15570162179E-03 -0.98968910668E-03 -0.34983881269E-01  0.34998223900E-01  0.00000000000E+00 0. -1.
</event>
<event>
 5   0  0.1792268E+06  0.9118800E+02  0.7546771E-02  0.1180000E+00
      -11   -1    0    0    0    0  0.00000000000E+00  0.00000000000E+00  0.34996269501E-01  0.35000000000E-01  0.51099999109E-03 0.  1.
       11   -1    0    0    0    0 -0.00000000000E+00 -0.00000000000E+00 -0.34996269501E-01  0.35000000000E-01  0.51099999109E-03 0. -1.
       22    1    1    2    0    0  0.58410314091E-02  0.27565973683E-02 -0.34398888385E-01  0.34999999987E-01  0.00000000000E+00 0. -1.
       22    1    1    2    0    0 -0.10748201571E-07 -0.71859495660E-08  0.69416801506E-07  0.70610580223E-07  0.00000000000E+00 0. -1.
       22    1    1    2    0    0 -0.58410206609E-02 -0.27565901824E-02  0.34398818968E-01  0.34999929403E-01  0.00000000000E+00 0.  1.
</event>
<event>
 5   0  0.1792268E+06  0.9118800E+02  0.7546771E-02  0.1180000E+00
      -11   -1    0    0    0    0  0.00000000000E+00  0.00000000000E+00  0.34996269501E-01  0.35000000000E-01  0.51099999109E-03 0. -1.
       11   -1    0    0    0    0 -0.00000000000E+00 -0.00000000000E+00 -0.34996269501E-01  0.35000000000E-01  0.51099999109E-03 0. -1.
       22    1    1    2    0    0 -0.44031903330E-03  0.99228546874E-04  0.34962641811E-01  0.34965555187E-01  0.00000000000E+00 0. -1.
       22    1    1    2    0    0  0.45720117183E-03  0.19988066732E-03 -0.34338514925E-01  0.34342140184E-01  0.00000000000E+00 0. -1.
       22    1    1    2    0    0 -0.16882138531E-04 -0.29910921420E-03 -0.62412688593E-03  0.69230462830E-03  0.00000000000E+00 0.  1.
</event>
<event>
 5   0  0.1792268E+06  0.9118800E+02  0.7546771E-02  0.1180000E+00
      -11   -1    0    0    0    0  0.00000000000E+00  0.00000000000E+00  0.34996269501E-01  0.35000000000E-01  0.51099999109E-03 0.  1.
       11   -1    0    0    0    0 -0.00000000000E+00 -0.00000000000E+00 -0.34996269501E-01  0.35000000000E-01  0.51099999109E-03 0. -1.
       22    1    1    2    0    0 -0.86440663829E-03 -0.15362403821E-02  0.34947672247E-01  0.34992099520E-01  0.00000000000E+00 0.  1.
       22    1    1    2    0    0  0.86422287027E-03  0.15347529240E-02 -0.34955541895E-01  0.34999889384E-01  0.00000000000E+00 0. -1.
       22    1    1    2    0    0  0.18376801613E-06  0.14874580819E-05  0.78696478052E-05  0.80110959804E-05  0.00000000000E+00 0. -1.
</event>
<event>
 5   0  0.1792268E+06  0.9118800E+02  0.7546771E-02  0.1180000E+00
      -11   -1    0    0    0    0  0.00000000000E+00  0.00000000000E+00  0.34996269501E-01  0.35000000000E-01  0.51099999109E-03 0. -1.
       11   -1    0    0    0    0 -0.00000000000E+00 -0.00000000000E+00 -0.34996269501E-01  0.35000000000E-01  0.51099999109E-03 0.  1.
       22    1    1    2    0    0  0.12352160754E-02  0.84297779840E-03 -0.34967957597E-01  0.34999920411E-01  0.00000000000E+00 0.  1.
       22    1    1    2    0    0 -0.12355405170E-02 -0.84363504232E-03  0.34965957327E-01  0.34997949257E-01  0.00000000000E+00 0. -1.
       22    1    1    2    0    0  0.32444165949E-06  0.65724392443E-06  0.20002698073E-05  0.21303312579E-05  0.00000000000E+00 0. -1.
</event>
<event>
 5   0  0.1792268E+06  0.9118800E+02  0.7546771E-02  0.1180000E+00
      -11   -1    0    0    0    0  0.00000000000E+00  0.00000000000E+00  0.34996269501E-01  0.35000000000E-01  0.51099999109E-03 0. -1.
       11   -1    0    0    0    0 -0.00000000000E+00 -0.00000000000E+00 -0.34996269501E-01  0.35000000000E-01  0.51099999109E-03 0.  1.
       22    1    1    2    0    0  0.89186880389E-03 -0.47703490914E-04 -0.23520350481E-01  0.23537302146E-01  0.00000000000E+00 0.  1.
       22    1    1    2    0    0 -0.79252744461E-02 -0.14087845426E-01 -0.21693889755E-02  0.16309004026E-01  0.00000000000E+00 0.  1.
       22    1    1    2    0    0  0.70334056422E-02  0.14135548917E-01  0.25689739456E-01  0.30153693828E-01  0.00000000000E+00 0. -1.
</event>
<event>
 5   0  0.1792268E+06  0.9118800E+02  0.7546771E-02  0.1180000E+00
      -11   -1    0    0    0    0  0.00000000000E+00  0.00000000000E+00  0.34996269501E-01  0.35000000000E-01  0.51099999109E-03 0.  1.
       11   -1    0    0    0    0 -0.00000000000E+00 -0.00000000000E+00 -0.34996269501E-01  0.35000000000E-01  0.51099999109E-03 0. -1.
       22    1    1    2    0    0 -0.22119812120E-02 -0.64312622261E-03 -0.34922632838E-01  0.34998525063E-01  0.00000000000E+00 0. -1.
       22    1    1    2    0    0  0.22623861901E-04 -0.46256965811E-04  0.94373447138E-03  0.94513824305E-03  0.00000000000E+00 0.  1.
       22    1    1    2    0    0  0.21893573501E-02  0.68938318842E-03  0.33978898367E-01  0.34056336694E-01  0.00000000000E+00 0.  1.
</event>
<event>
 5   0  0.1792268E+06  0.9118800E+02  0.7546771E-02  0.1180000E+00
      -11   -1    0    0    0    0  0.00000000000E+00  0.00000000000E+00  0.34996269501E-01  0.35000000000E-01  0.51099999109E-03 0.  1.
       11   -1    0    0    0    0 -0.00000000000E+00 -0.00000000000E+00 -0.34996269501E-01  0.35000000000E-01  0.51099999109E-03 0. -1.
       22    1    1    2    0    0  0.42284620080E-04 -0.63414145261E-04 -0.25766888334E-03  0.26870540813E-03  0.00000000000E+00 0. -1.
       22    1    1    2    0    0  0.11763971965E-01  0.10048907578E-01 -0.31118164909E-01  0.34752147664E-01  0.00000000000E+00 0. -1.
       22    1    1    2    0    0 -0.11806256585E-01 -0.99854934330E-02  0.31375833792E-01  0.34979146928E-01  0.00000000000E+00 0.  1.
</event>
<event>
 5   0  0.1792268E+06  0.9118800E+02  0.7546771E-02  0.1180000E+00
      -11   -1    0    0    0    0  0.00000000000E+00  0.00000000000E+00  0.34996269501E-01  0.35000000000E-01  0.51099999109E-03 0.  1.
       11   -1    0    0    0    0 -0.00000000000E+00 -0.00000000000E+00 -0.34996269501E-01  0.35000000000E-01  0.51099999109E-03 0. -1.
       22    1    1    2    0    0 -0.18537408652E-02  0.51854791371E-03 -0.34946837643E-01  0.34999810119E-01  0.00000000000E+00 0. -1.
       22    1    1    2    0    0  0.10798176326E-06  0.11665499657E-05  0.16941783367E-05  0.20597910380E-05  0.00000000000E+00 0. -1.
       22    1    1    2    0    0  0.18536328834E-02 -0.51971446367E-03  0.34945143465E-01  0.34998130090E-01  0.00000000000E+00 0.  1.
</event>
<event>
 5   0  0.1792268E+06  0.9118800E+02  0.7546771E-02  0.1180000E+00
      -11   -1    0    0    0    0  0.00000000000E+00  0.00000000000E+00  0.34996269501E-01  0.35000000000E-01  0.51099999109E-03 0. -1.
       11   -1    0    0    0    0 -0.00000000000E+00 -0.00000000000E+00 -0.34996269501E-01  0.35000000000E-01  0.51099999109E-03 0.  1.
       22    1    1    2    0    0 -0.81214756065E-07  0.32912335627E-06  0.95768484925E-06  0.10159125409E-05  0.00000000000E+00 0. -1.
       22    1    1    2    0    0 -0.76009527510E-02  0.34085985841E-02  0.33993192290E-01  0.34999002116E-01  0.00000000000E+00 0. -1.
       22    1    1    2    0    0  0.76010339658E-02 -0.34089277074E-02 -0.33994149975E-01  0.34999981971E-01  0.00000000000E+00 0.  1.
</event>
<event>
 5   0  0.1792268E+06  0.9118800E+02  0.7546771E-02  0.1180000E+00
      -11   -1    0    0    0    0  0.00000000000E+00  0.00000000000E+00  0.34996269501E-01  0.35000000000E-01  0.51099999109E-03 0.  1.
       11   -1    0    0    0    0 -0.00000000000E+00 -0.00000000000E+00 -0.34996269501E-01  0.35000000000E-01  0.51099999109E-03 0. -1.
       22    1    1    2    0    0  0.12212549921E-06  0.47782776424E-07  0.29084493615E-05  0.29114043896E-05  0.00000000000E+00 0.  1.
       22    1    1    2    0    0  0.15180716061E-01 -0.28856993919E-01 -0.12718269388E-01  0.34999065907E-01  0.00000000000E+00 0. -1.
       22    1    1    2    0    0 -0.15180838186E-01  0.28856946136E-01  0.12715360939E-01  0.34998022689E-01  0.00000000000E+00 0.  1.
</event>
<event>
 5   0  0.1792268E+06  0.9118800E+02  0.7546771E-02  0.1180000E+00
      -11   -1    0    0    0    0  0.00000000000E+00  0.00000000000E+00  0.34996269501E-01  0.35000000000E-01  0.51099999109E-03 0. -1.
       11   -1    0    0    0    0 -0.00000000000E+00 -0.00000000000E+00 -0.34996269501E-01  0.35000000000E-01  0.51099999109E-03 0.  1.
       22    1    1    2    0    0 -0.13915086185E-01 -0.99360722786E-03 -0.20883933941E-01  0.25114847714E-01  0.00000000000E+00 0.  1.
       22    1    1    2    0    0  0.33209840812E-03 -0.53053767442E-03  0.28988171262E-01  0.28994927706E-01  0.00000000000E+00 0. -1.
       22    1    1    2    0    0  0.13582987777E-01  0.15241449023E-02 -0.81042373213E-02  0.15890224580E-01  0.00000000000E+00 0. -1.
</event>
<event>
 5   0  0.1792268E+06  0.9118800E+02  0.7546771E-02  0.1180000E+00
      -11   -1    0    0    0    0  0.00000000000E+00  0.00000000000E+00  0.34996269501E-01  0.35000000000E-01  0.51099999109E-03 0. -1.
       11   -1    0    0    0    0 -0.00000000000E+00 -0.00000000000E+00 -0.34996269501E-01  0.35000000000E-01  0.51099999109E-03 0.  1.
       22    1    1    2    0    0 -0.78415984445E-08  0.96608828866E-08  0.15584174156E-06  0.15633768495E-06  0.00000000000E+00 0. -1.
       22    1    1    2    0    0 -0.11663073174E-01  0.14508110455E-01  0.29639114911E-01  0.34999852536E-01  0.00000000000E+00 0. -1.
       22    1    1    2    0    0  0.11663081015E-01 -0.14508120116E-01 -0.29639270753E-01  0.34999991126E-01  0.00000000000E+00 0.  1.
</event>
<event>
 5   0  0.1792268E+06  0.9118800E+02  0.7546771E-02  0.1180000E+00
      -11   -1    0    0    0    0  0.00000000000E+00  0.00000000000E+00  0.34996269501E-01  0.35000000000E-01  0.51099999109E-03 0. -1.
       11   -1    0    0    0    0 -0.00000000000E+00 -0.00000000000E+00 -0.34996269501E-01  0.35000000000E-01  0.51099999109E-03 0.  1.
       22    1    1    2    0    0 -0.93297692108E-04  0.14101354752E-03 -0.52128035683E-04  0.17693674587E-03  0.00000000000E+00 0.  1.
       22    1    1    2    0    0 -0.15726719982E-02 -0.23946838867E-02 -0.34770254242E-01  0.34888083756E-01  0.00000000000E+00 0.  1.
       22    1    1    2    0    0  0.16659696903E-02  0.22536703392E-02  0.34822382278E-01  0.34934979498E-01  0.00000000000E+00 0. -1.
</event>
<event>
 5   0  0.1792268E+06  0.9118800E+02  0.7546771E-02  0.1180000E+00
      -11   -1    0    0    0    0  0.00000000000E+00  0.00000000000E+00  0.34996269501E-01  0.35000000000E-01  0.51099999109E-03 0. -1.
       11   -1    0    0    0    0 -0.00000000000E+00 -0.00000000000E+00 -0.34996269501E-01  0.35000000000E-01  0.51099999109E-03 0.  1.
       22    1    1    2    0    0  0.51897115817E-02 -0.15492269416E-01 -0.30952374941E-01  0.34999900463E-01  0.00000000000E+00 0.  1.
       22    1    1    2    0    0 -0.51898429434E-02  0.15492336762E-01  0.30952377368E-01  0.34999951898E-01  0.00000000000E+00 0. -1.
       22    1    1    2    0    0  0.13136165080E-06 -0.67345346453E-07 -0.24277123577E-08  0.14763865611E-06  0.00000000000E+00 0.  1.
</event>
<event>
 5   0  0.1792268E+06  0.9118800E+02  0.7546771E-02  0.1180000E+00
      -11   -1    0    0    0    0  0.00000000000E+00  0.00000000000E+00  0.34996269501E-01  0.35000000000E-01  0.51099999109E-03 0.  1.
       11   -1    0    0    0    0 -0.00000000000E+00 -0.00000000000E+00 -0.34996269501E-01  0.35000000000E-01  0.51099999109E-03 0. -1.
       22    1    1    2    0    0  0.49840512849E-03  0.22263296041E-03  0.33364501990E-03  0.63975941296E-03  0.00000000000E+00 0.  1.
       22    1    1    2    0    0 -0.69191281945E-03  0.26376797510E-02 -0.34733876938E-01  0.34840756378E-01  0.00000000000E+00 0. -1.
       22    1    1    2    0    0  0.19350769095E-03 -0.28603127114E-02  0.34400231918E-01  0.34519484209E-01  0.00000000000E+00 0.  1.
</event>
<event>
 5   0  0.1792268E+06  0.9118800E+02  0.7546771E-02  0.1180000E+00
      -11   -1    0    0    0    0  0.00000000000E+00  0.00000000000E+00  0.34996269501E-01  0.35000000000E-01  0.51099999109E-03 0. -1.
       11   -1    0    0    0    0 -0.00000000000E+00 -0.00000000000E+00 -0.34996269501E-01  0.35000000000E-01  0.51099999109E-03 0.  1.
       22    1    1    2    0    0  0.94490422378E-02  0.69195024338E-02  0.32245934192E-01  0.34306911622E-01  0.00000000000E+00 0. -1.
       22    1    1    2    0    0 -0.10729119868E-01 -0.78046397832E-02 -0.30928292417E-01  0.33653910428E-01  0.00000000000E+00 0.  1.
       22    1    1    2    0    0  0.12800776298E-02  0.88513734938E-03 -0.13176417745E-02  0.20391779499E-02  0.00000000000E+00 0. -1.
</event>
<event>
 5   0  0.1792268E+06  0.9118800E+02  0.7546771E-02  0.1180000E+00
      -11   -1    0    0    0    0  0.00000000000E+00  0.00000000000E+00  0.34996269501E-01  0.35000000000E-01  0.51099999109E-03 0. -1.
       11   -1    0    0    0    0 -0.00000000000E+00 -0.00000000000E+00 -0.34996269501E-01  0.35000000000E-01  0.51099999109E-03 0.  1.
       22    1    1    2    0    0 -0.56805939557E-02 -0.17759191696E-02  0.33096449891E-01  0.33627340543E-01  0.00000000000E+00 0. -1.
       22    1    1    2    0    0  0.54525704498E-02  0.19375450561E-02 -0.34479474585E-01  0.34961675775E-01  0.00000000000E+00 0.  1.
       22    1    1    2    0    0  0.22802350596E-03 -0.16162588653E-03  0.13830246942E-02  0.14109836822E-02  0.00000000000E+00 0. -1.
</event>
<event>
 5   0  0.1792268E+06  0.9118800E+02  0.7546771E-02  0.1180000E+00
      -11   -1    0    0    0    0  0.00000000000E+00  0.00000000000E+00  0.34996269501E-01  0.35000000000E-01  0.51099999109E-03 0.  1.
       11   -1    0    0    0    0 -0.00000000000E+00 -0.00000000000E+00 -0.34996269501E-01  0.35000000000E-01  0.51099999109E-03 0. -1.
       22    1    1    2    0    0  0.22007175932E-02 -0.70756508748E-03 -0.22905652473E-01  0.23022005158E-01  0.00000000000E+00 0. -1.
       22    1    1    2    0    0  0.15211438696E-01 -0.26123822772E-02  0.24737832366E-01  0.29157722108E-01  0.00000000000E+00 0.  1.
       22    1    1    2    0    0 -0.17412156290E-01  0.33199473647E-02 -0.18321798933E-02  0.17820272734E-01  0.00000000000E+00 0. -1.
</event>
<event>
 5   0  0.1792268E+06  0.9118800E+02  0.7546771E-02  0.1180000E+00
      -11   -1    0    0    0    0  0.00000000000E+00  0.00000000000E+00  0.34996269501E-01  0.35000000000E-01  0.51099999109E-03 0. -1.
       11   -1    0    0    0    0 -0.00000000000E+00 -0.00000000000E+00 -0.34996269501E-01  0.35000000000E-01  0.51099999109E-03 0.  1.
       22    1    1    2    0    0  0.21088127121E-02  0.90215724795E-02 -0.33751505428E-01  0.34999999710E-01  0.00000000000E+00 0.  1.
       22    1    1    2    0    0 -0.21088135999E-02 -0.90215725067E-02  0.33751504890E-01  0.34999999251E-01  0.00000000000E+00 0. -1.
       22    1    1    2    0    0  0.88776913140E-09  0.27197753101E-10  0.53830343541E-09  0.10385780361E-08  0.00000000000E+00 0. -1.
</event>
<event>
 5   0  0.1792268E+06  0.9118800E+02  0.7546771E-02  0.1180000E+00
      -11   -1    0    0    0    0  0.00000000000E+00  0.00000000000E+00  0.34996269501E-01  0.35000000000E-01  0.51099999109E-03 0. -1.
       11   -1    0    0    0    0 -0.00000000000E+00 -0.00000000000E+00 -0.34996269501E-01  0.35000000000E-01  0.51099999109E-03 0.  1.
       22    1    1    2    0    0 -0.21933579084E-02 -0.18752236497E-02  0.34879006975E-01  0.34998177241E-01  0.00000000000E+00 0. -1.
       22    1    1    2    0    0  0.21932737322E-02  0.18751379112E-02 -0.34880835810E-01  0.34999989981E-01  0.00000000000E+00 0.  1.
       22    1    1    2    0    0  0.84176171647E-07  0.85738534331E-07  0.18288350202E-05  0.18327777430E-05  0.00000000000E+00 0. -1.
</event>
<event>
 5   0  0.1792268E+06  0.9118800E+02  0.7546771E-02  0.1180000E+00
      -11   -1    0    0    0    0  0.00000000000E+00  0.00000000000E+00  0.34996269501E-01  0.35000000000E-01  0.51099999109E-03 0. -1.
       11   -1    0    0    0    0 -0.00000000000E+00 -0.00000000000E+00 -0.34996269501E-01  0.35000000000E-01  0.51099999109E-03 0.  1.
       22    1    1    2    0    0  0.77938127987E-05  0.75890788978E-05  0.11476240029E-03  0.11527682402E-03  0.00000000000E+00 0. -1.
       22    1    1    2    0    0 -0.68561184063E-02  0.21462266529E-02 -0.34253769810E-01  0.34999048482E-01  0.00000000000E+00 0.  1.
       22    1    1    2    0    0  0.68483245935E-02 -0.21538157318E-02  0.34139007410E-01  0.34885674694E-01  0.00000000000E+00 0. -1.
</event>
<event>
 5   0  0.1792268E+06  0.9118800E+02  0.7546771E-02  0.1180000E+00
      -11   -1    0    0    0    0  0.00000000000E+00  0.00000000000E+00  0.34996269501E-01  0.35000000000E-01  0.51099999109E-03 0. -1.
       11   -1    0    0    0    0 -0.00000000000E+00 -0.00000000000E+00 -0.34996269501E-01  0.35000000000E-01  0.51099999109E-03 0. -1.
       22    1    1    2    0    0  0.22718239820E-03 -0.17118632836E-03  0.13660908400E-03  0.31556083867E-03  0.00000000000E+00 0.  1.
       22    1    1    2    0    0 -0.99441278916E-03 -0.41350036744E-04 -0.34898871978E-01  0.34913061051E-01  0.00000000000E+00 0. -1.
       22    1    1    2    0    0  0.76723039096E-03  0.21253636510E-03  0.34762262894E-01  0.34771378110E-01  0.00000000000E+00 0. -1.
</event>
<event>
 5   0  0.1792268E+06  0.9118800E+02  0.7546771E-02  0.1180000E+00
      -11   -1    0    0    0    0  0.00000000000E+00  0.00000000000E+00  0.34996269501E-01  0.35000000000E-01  0.51099999109E-03 0.  1.
       11   -1    0    0    0    0 -0.00000000000E+00 -0.00000000000E+00 -0.34996269501E-01  0.35000000000E-01  0.51099999109E-03 0. -1.
       22    1    1    2    0    0 -0.29799523945E-01  0.17773811281E-01  0.42868955329E-02  0.34961371084E-01  0.00000000000E+00 0. -1.
       22    1    1    2    0    0  0.72798790750E-03 -0.91171950409E-03 -0.18902846931E-03  0.11819181908E-02  0.00000000000E+00 0. -1.
       22    1    1    2    0    0  0.29071536037E-01 -0.16862091776E-01 -0.40978670636E-02  0.33856710725E-01  0.00000000000E+00 0.  1.
</event>
<event>
 5   0  0.1792268E+06  0.9118800E+02  0.7546771E-02  0.1180000E+00
      -11   -1    0    0    0    0  0.00000000000E+00  0.00000000000E+00  0.34996269501E-01  0.35000000000E-01  0.51099999109E-03 0. -1.
       11   -1    0    0    0    0 -0.00000000000E+00 -0.00000000000E+00 -0.34996269501E-01  0.35000000000E-01  0.51099999109E-03 0.  1.
       22    1    1    2    0    0  0.11415845069E-01  0.32109156098E-01 -0.78830327375E-02  0.34978016369E-01  0.00000000000E+00 0.  1.
       22    1    1    2    0    0 -0.11854940235E-06 -0.17600267565E-05  0.58800872450E-04  0.58827326550E-04  0.00000000000E+00 0. -1.
       22    1    1    2    0    0 -0.11415726520E-01 -0.32107396072E-01  0.78242318650E-02  0.34963156304E-01  0.00000000000E+00 0. -1.
</event>
<event>
 5   0  0.1792268E+06  0.9118800E+02  0.7546771E-02  0.1180000E+00
      -11   -1    0    0    0    0  0.00000000000E+00  0.00000000000E+00  0.34996269501E-01  0.35000000000E-01  0.51099999109E-03 0.  1.
       11   -1    0    0    0    0 -0.00000000000E+00 -0.00000000000E+00 -0.34996269501E-01  0.35000000000E-01  0.51099999109E-03 0.  1.
       22    1    1    2    0    0  0.49467420867E-04 -0.81043802788E-04  0.34721458322E-02  0.34734437960E-02  0.00000000000E+00 0. -1.
       22    1    1    2    0    0 -0.49471289147E-04  0.81050140295E-04  0.31528399535E-01  0.31527210617E-01  0.00000000000E+00 0.  1.
       22    1    1    2    0    0  0.38682804293E-08 -0.63375076109E-08 -0.35000545367E-01  0.34999345587E-01  0.00000000000E+00 0.  1.
</event>
<event>
 5   0  0.1792268E+06  0.9118800E+02  0.7546771E-02  0.1180000E+00
      -11   -1    0    0    0    0  0.00000000000E+00  0.00000000000E+00  0.34996269501E-01  0.35000000000E-01  0.51099999109E-03 0. -1.
       11   -1    0    0    0    0 -0.00000000000E+00 -0.00000000000E+00 -0.34996269501E-01  0.35000000000E-01  0.51099999109E-03 0.  1.
       22    1    1    2    0    0 -0.48672292963E-02 -0.37266671646E-02 -0.34458990408E-01  0.34999999844E-01  0.00000000000E+00 0.  1.
       22    1    1    2    0    0  0.48672287977E-02  0.37266676212E-02  0.34458989863E-01  0.34999999288E-01  0.00000000000E+00 0. -1.
       22    1    1    2    0    0  0.49859442042E-09 -0.45662316679E-09  0.54453477881E-09  0.86811245692E-09  0.00000000000E+00 0.  1.
</event>
<event>
 5   0  0.1792268E+06  0.9118800E+02  0.7546771E-02  0.1180000E+00
      -11   -1    0    0    0    0  0.00000000000E+00  0.00000000000E+00  0.34996269501E-01  0.35000000000E-01  0.51099999109E-03 0.  1.
       11   -1    0    0    0    0 -0.00000000000E+00 -0.00000000000E+00 -0.34996269501E-01  0.35000000000E-01  0.51099999109E-03 0. -1.
       22    1    1    2    0    0 -0.21496648378E-08 -0.34077722011E-08  0.84847737198E-09  0.41175094584E-08  0.00000000000E+00 0.  1.
       22    1    1    2    0    0  0.13854318240E-02 -0.55686783295E-03  0.34968132695E-01  0.34999997533E-01  0.00000000000E+00 0.  1.
       22    1    1    2    0    0 -0.13854296743E-02  0.55687124072E-03 -0.34968133543E-01  0.34999998350E-01  0.00000000000E+00 0. -1.
</event>
<event>
 5   0  0.1792268E+06  0.9118800E+02  0.7546771E-02  0.1180000E+00
      -11   -1    0    0    0    0  0.00000000000E+00  0.00000000000E+00  0.34996269501E-01  0.35000000000E-01  0.51099999109E-03 0.  1.
       11   -1    0    0    0    0 -0.00000000000E+00 -0.00000000000E+00 -0.34996269501E-01  0.35000000000E-01  0.51099999109E-03 0. -1.
       22    1    1    2    0    0 -0.59666119511E-02 -0.24078579475E-02  0.34397011549E-01  0.34993608582E-01  0.00000000000E+00 0.  1.
       22    1    1    2    0    0 -0.18829285487E-06  0.74667929381E-07  0.64311535316E-05  0.64343426429E-05  0.00000000000E+00 0. -1.
       22    1    1    2    0    0  0.59668002439E-02  0.24077832796E-02 -0.34403442703E-01  0.34999957075E-01  0.00000000000E+00 0. -1.
</event>
<event>
 5   0  0.1792268E+06  0.9118800E+02  0.7546771E-02  0.1180000E+00
      -11   -1    0    0    0    0  0.00000000000E+00  0.00000000000E+00  0.34996269501E-01  0.35000000000E-01  0.51099999109E-03 0.  1.
       11   -1    0    0    0    0 -0.00000000000E+00 -0.00000000000E+00 -0.34996269501E-01  0.35000000000E-01  0.51099999109E-03 0. -1.
       22    1    1    2    0    0  0.16250795137E-01 -0.30683210766E-02 -0.29922813545E-01  0.34188853552E-01  0.00000000000E+00 0. -1.
       22    1    1    2    0    0  0.72836471757E-04 -0.80406353461E-03  0.87980212007E-02  0.88349872873E-02  0.00000000000E+00 0. -1.
       22    1    1    2    0    0 -0.16323631608E-01  0.38723846112E-02  0.21124792344E-01  0.26976159160E-01  0.00000000000E+00 0.  1.
</event>
<event>
 5   0  0.1792268E+06  0.9118800E+02  0.7546771E-02  0.1180000E+00
      -11   -1    0    0    0    0  0.00000000000E+00  0.00000000000E+00  0.34996269501E-01  0.35000000000E-01  0.51099999109E-03 0. -1.
       11   -1    0    0    0    0 -0.00000000000E+00 -0.00000000000E+00 -0.34996269501E-01  0.35000000000E-01  0.51099999109E-03 0.  1.
       22    1    1    2    0    0 -0.23461634160E-01 -0.13388727949E-01 -0.22254814726E-01  0.34999758456E-01  0.00000000000E+00 0.  1.
       22    1    1    2    0    0  0.23461727972E-01  0.13388805315E-01  0.22253761297E-01  0.34999181120E-01  0.00000000000E+00 0. -1.
       22    1    1    2    0    0 -0.93811967664E-07 -0.77366499550E-07  0.10534288811E-05  0.10604238153E-05  0.00000000000E+00 0.  1.
</event>
<event>
 5   0  0.1792268E+06  0.9118800E+02  0.7546771E-02  0.1180000E+00
      -11   -1    0    0    0    0  0.00000000000E+00  0.00000000000E+00  0.34996269501E-01  0.35000000000E-01  0.51099999109E-03 0.  1.
       11   -1    0    0    0    0 -0.00000000000E+00 -0.00000000000E+00 -0.34996269501E-01  0.35000000000E-01  0.51099999109E-03 0. -1.
       22    1    1    2    0    0  0.10796605375E-02 -0.86472206287E-03 -0.34941721319E-01  0.34969090636E-01  0.00000000000E+00 0. -1.
       22    1    1    2    0    0 -0.99816288950E-03  0.90205147782E-03  0.34909860918E-01  0.34935775580E-01  0.00000000000E+00 0.  1.
       22    1    1    2    0    0 -0.81497648028E-04 -0.37329414954E-04  0.31860401118E-04  0.95133784820E-04  0.00000000000E+00 0.  1.
</event>
<event>
 5   0  0.1792268E+06  0.9118800E+02  0.7546771E-02  0.1180000E+00
      -11   -1    0    0    0    0  0.00000000000E+00  0.00000000000E+00  0.34996269501E-01  0.35000000000E-01  0.51099999109E-03 0.  1.
       11   -1    0    0    0    0 -0.00000000000E+00 -0.00000000000E+00 -0.34996269501E-01  0.35000000000E-01  0.51099999109E-03 0. -1.
       22    1    1    2    0    0  0.11316597906E-01  0.11416841588E-02  0.33049691775E-01  0.34952123788E-01  0.00000000000E+00 0.  1.
       22    1    1    2    0    0 -0.11299017424E-01 -0.80589084059E-03 -0.32170916319E-01  0.34106965734E-01  0.00000000000E+00 0. -1.
       22    1    1    2    0    0 -0.17580481922E-04 -0.33579331818E-03 -0.87877545572E-03  0.94091047791E-03  0.00000000000E+00 0. -1.
</event>
<event>
 5   0  0.1792268E+06  0.9118800E+02  0.7546771E-02  0.1180000E+00
      -11   -1    0    0    0    0  0.00000000000E+00  0.00000000000E+00  0.34996269501E-01  0.35000000000E-01  0.51099999109E-03 0. -1.
       11   -1    0    0    0    0 -0.00000000000E+00 -0.00000000000E+00 -0.34996269501E-01  0.35000000000E-01  0.51099999109E-03 0.  1.
       22    1    1    2    0    0  0.57771682158E-02  0.61329401134E-02  0.32826442247E-01  0.33890469717E-01  0.00000000000E+00 0. -1.
       22    1    1    2    0    0  0.36129805723E-04  0.31007005113E-04  0.11203398015E-02  0.11213510013E-02  0.00000000000E+00 0.  1.
       22    1    1    2    0    0 -0.58132980215E-02 -0.61639471185E-02 -0.33946782049E-01  0.34988179282E-01  0.00000000000E+00 0.  1.
</event>
<event>
 5   0  0.1792268E+06  0.9118800E+02  0.7546771E-02  0.1180000E+00
      -11   -1    0    0    0    0  0.00000000000E+00  0.00000000000E+00  0.34996269501E-01  0.35000000000E-01  0.51099999109E-03 0. -1.
       11   -1    0    0    0    0 -0.00000000000E+00 -0.00000000000E+00 -0.34996269501E-01  0.35000000000E-01  0.51099999109E-03 0.  1.
       22    1    1    2    0    0  0.85393606362E-05  0.64760514521E-05  0.76521324095E-05  0.13168714930E-04  0.00000000000E+00 0.  1.
       22    1    1    2    0    0 -0.89754945961E-02 -0.16329235257E-02 -0.33788443395E-01  0.34998354955E-01  0.00000000000E+00 0.  1.
       22    1    1    2    0    0  0.89669552355E-02  0.16264474743E-02  0.33780791263E-01  0.34988476330E-01  0.00000000000E+00 0. -1.
</event>
<event>
 5   0  0.1792268E+06  0.9118800E+02  0.7546771E-02  0.1180000E+00
      -11   -1    0    0    0    0  0.00000000000E+00  0.00000000000E+00  0.34996269501E-01  0.35000000000E-01  0.51099999109E-03 0. -1.
       11   -1    0    0    0    0 -0.00000000000E+00 -0.00000000000E+00 -0.34996269501E-01  0.35000000000E-01  0.51099999109E-03 0.  1.
       22    1    1    2    0    0  0.14694416425E-02 -0.16824269168E-02  0.33599368245E-01  0.33673541031E-01  0.00000000000E+00 0. -1.
       22    1    1    2    0    0  0.42608598851E-02 -0.23397650424E-02 -0.53763973556E-02  0.72481084387E-02  0.00000000000E+00 0. -1.
       22    1    1    2    0    0 -0.57303015276E-02  0.40221919593E-02 -0.28222970890E-01  0.29078350531E-01  0.00000000000E+00 0.  1.
</event>
<event>
 5   0  0.1792268E+06  0.9118800E+02  0.7546771E-02  0.1180000E+00
      -11   -1    0    0    0    0  0.00000000000E+00  0.00000000000E+00  0.34996269501E-01  0.35000000000E-01  0.51099999109E-03 0. -1.
       11   -1    0    0    0    0 -0.00000000000E+00 -0.00000000000E+00 -0.34996269501E-01  0.35000000000E-01  0.51099999109E-03 0.  1.
       22    1    1    2    0    0 -0.84803867437E-02 -0.84518651672E-02 -0.32888431370E-01  0.34999998602E-01  0.00000000000E+00 0.  1.
       22    1    1    2    0    0  0.27587623780E-08  0.56885656995E-08  0.18656992376E-08  0.65917663203E-08  0.00000000000E+00 0.  1.
       22    1    1    2    0    0  0.84803839850E-02  0.84518594787E-02  0.32888429505E-01  0.34999994806E-01  0.00000000000E+00 0. -1.
</event>
<event>
 5   0  0.1792268E+06  0.9118800E+02  0.7546771E-02  0.1180000E+00
      -11   -1    0    0    0    0  0.00000000000E+00  0.00000000000E+00  0.34996269501E-01  0.35000000000E-01  0.51099999109E-03 0. -1.
       11   -1    0    0    0    0 -0.00000000000E+00 -0.00000000000E+00 -0.34996269501E-01  0.35000000000E-01  0.51099999109E-03 0.  1.
       22    1    1    2    0    0 -0.13132708958E-04  0.42162356887E-05  0.17242914244E-03  0.17297992326E-03  0.00000000000E+00 0. -1.
       22    1    1    2    0    0  0.84660416804E-02  0.35821348991E-02 -0.33769197377E-01  0.34998060570E-01  0.00000000000E+00 0.  1.
       22    1    1    2    0    0 -0.84529089714E-02 -0.35863511348E-02  0.33596768234E-01  0.34828959507E-01  0.00000000000E+00 0. -1.
</event>
<event>
 5   0  0.1792268E+06  0.9118800E+02  0.7546771E-02  0.1180000E+00
      -11   -1    0    0    0    0  0.00000000000E+00  0.00000000000E+00  0.34996269501E-01  0.35000000000E-01  0.51099999109E-03 0. -1.
       11   -1    0    0    0    0 -0.00000000000E+00 -0.00000000000E+00 -0.34996269501E-01  0.35000000000E-01  0.51099999109E-03 0.  1.
       22    1    1    2    0    0 -0.16492212171E-01 -0.15603644790E-02  0.30680646339E-01  0.34867317927E-01  0.00000000000E+00 0. -1.
       22    1    1    2    0    0  0.13828058775E-01  0.27505944333E-02 -0.26740536501E-01  0.30229741507E-01  0.00000000000E+00 0.  1.
       22    1    1    2    0    0  0.26641533957E-02 -0.11902299543E-02 -0.39401098388E-02  0.49029405669E-02  0.00000000000E+00 0.  1.
</event>
<event>
 5   0  0.1792268E+06  0.9118800E+02  0.7546771E-02  0.1180000E+00
      -11   -1    0    0    0    0  0.00000000000E+00  0.00000000000E+00  0.34996269501E-01  0.35000000000E-01  0.51099999109E-03 0.  1.
       11   -1    0    0    0    0 -0.00000000000E+00 -0.00000000000E+00 -0.34996269501E-01  0.35000000000E-01  0.51099999109E-03 0. -1.
       22    1    1    2    0    0 -0.75165928249E-03 -0.15744820329E-03  0.34959931871E-01  0.34968365962E-01  0.00000000000E+00 0.  1.
       22    1    1    2    0    0  0.11934287014E-02  0.16475488252E-03 -0.33022185678E-01  0.33044154751E-01  0.00000000000E+00 0. -1.
       22    1    1    2    0    0 -0.44176941889E-03 -0.73066792268E-05 -0.19377461931E-02  0.19874792869E-02  0.00000000000E+00 0.  1.
</event>
<event>
 5   0  0.1792268E+06  0.9118800E+02  0.7546771E-02  0.1180000E+00
      -11   -1    0    0    0    0  0.00000000000E+00  0.00000000000E+00  0.34996269501E-01  0.35000000000E-01  0.51099999109E-03 0. -1.
       11   -1    0    0    0    0 -0.00000000000E+00 -0.00000000000E+00 -0.34996269501E-01  0.35000000000E-01  0.51099999109E-03 0.  1.
       22    1    1    2    0    0  0.31804443016E-09 -0.73257688780E-09  0.13131281425E-07  0.13155545334E-07  0.00000000000E+00 0.  1.
       22    1    1    2    0    0 -0.28117759795E-01 -0.13983469964E-01 -0.15454898675E-01  0.34999996303E-01  0.00000000000E+00 0.  1.
       22    1    1    2    0    0  0.28117759477E-01  0.13983470697E-01  0.15454885544E-01  0.34999990542E-01  0.00000000000E+00 0. -1.
</event>
<event>
 5   0  0.1792268E+06  0.9118800E+02  0.7546771E-02  0.1180000E+00
      -11   -1    0    0    0    0  0.00000000000E+00  0.00000000000E+00  0.34996269501E-01  0.35000000000E-01  0.51099999109E-03 0.  1.
       11   -1    0    0    0    0 -0.00000000000E+00 -0.00000000000E+00 -0.34996269501E-01  0.35000000000E-01  0.51099999109E-03 0. -1.
       22    1    1    2    0    0 -0.28097070208E-02  0.76916279604E-02 -0.34028542091E-01  0.34999961015E-01  0.00000000000E+00 0. -1.
       22    1    1    2    0    0  0.28098461147E-02 -0.76916765111E-02  0.34028354457E-01  0.34999800425E-01  0.00000000000E+00 0.  1.
       22    1    1    2    0    0 -0.13909390880E-06  0.48550634845E-07  0.18763381707E-06  0.23855969676E-06  0.00000000000E+00 0.  1.
</event>
<event>
 5   0  0.1792268E+06  0.9118800E+02  0.7546771E-02  0.1180000E+00
      -11   -1    0    0    0    0  0.00000000000E+00  0.00000000000E+00  0.34996269501E-01  0.35000000000E-01  0.51099999109E-03 0.  1.
       11   -1    0    0    0    0 -0.00000000000E+00 -0.00000000000E+00 -0.34996269501E-01  0.35000000000E-01  0.51099999109E-03 0. -1.
       22    1    1    2    0    0  0.16938872440E-02  0.90303196138E-02  0.33771655608E-01  0.34999152116E-01  0.00000000000E+00 0.  1.
       22    1    1    2    0    0 -0.16937799621E-02 -0.90303832669E-02 -0.33772508291E-01  0.34999986125E-01  0.00000000000E+00 0. -1.
       22    1    1    2    0    0 -0.10728188841E-06  0.63653093102E-07  0.85268274033E-06  0.86175923291E-06  0.00000000000E+00 0.  1.
</event>
<event>
 5   0  0.1792268E+06  0.9118800E+02  0.7546771E-02  0.1180000E+00
      -11   -1    0    0    0    0  0.00000000000E+00  0.00000000000E+00  0.34996269501E-01  0.35000000000E-01  0.51099999109E-03 0. -1.
       11   -1    0    0    0    0 -0.00000000000E+00 -0.00000000000E+00 -0.34996269501E-01  0.35000000000E-01  0.51099999109E-03 0.  1.
       22    1    1    2    0    0  0.85967185715E-05  0.96689588670E-05 -0.45485544057E-03  0.45503940945E-03  0.00000000000E+00 0.  1.
       22    1    1    2    0    0  0.70868203224E-02  0.14843858530E-01 -0.30405027286E-01  0.34569189209E-01  0.00000000000E+00 0.  1.
       22    1    1    2    0    0 -0.70954170410E-02 -0.14853527489E-01  0.30859882726E-01  0.34975771381E-01  0.00000000000E+00 0. -1.
</event>
<event>
 5   0  0.1792268E+06  0.9118800E+02  0.7546771E-02  0.1180000E+00
      -11   -1    0    0    0    0  0.00000000000E+00  0.00000000000E+00  0.34996269501E-01  0.35000000000E-01  0.51099999109E-03 0.  1.
       11   -1    0    0    0    0 -0.00000000000E+00 -0.00000000000E+00 -0.34996269501E-01  0.35000000000E-01  0.51099999109E-03 0.  1.
       22    1    1    2    0    0  0.17659873265E-02 -0.29521406375E-03  0.82570471974E-02  0.84489461474E-02  0.00000000000E+00 0. -1.
       22    1    1    2    0    0 -0.22766890105E-02  0.29169061486E-03  0.26595701363E-01  0.26694563627E-01  0.00000000000E+00 0.  1.
       22    1    1    2    0    0  0.51070168397E-03  0.35234488902E-05 -0.34852748560E-01  0.34856490225E-01  0.00000000000E+00 0.  1.
</event>
<event>
 5   0  0.1792268E+06  0.9118800E+02  0.7546771E-02  0.1180000E+00
      -11   -1    0    0    0    0  0.00000000000E+00  0.00000000000E+00  0.34996269501E-01  0.35000000000E-01  0.51099999109E-03 0.  1.
       11   -1    0    0    0    0 -0.00000000000E+00 -0.00000000000E+00 -0.34996269501E-01  0.35000000000E-01  0.51099999109E-03 0.  1.
       22    1    1    2    0    0 -0.71423479040E-03  0.29066072650E-03 -0.34926553940E-01  0.34935065265E-01  0.00000000000E+00 0.  1.
       22    1    1    2    0    0  0.51445405340E-04 -0.13011136770E-02  0.28243810508E-01  0.28273810769E-01  0.00000000000E+00 0.  1.
       22    1    1    2    0    0  0.66278938506E-03  0.10104529505E-02  0.66827434320E-02  0.67911239653E-02  0.00000000000E+00 0. -1.
</event>
<event>
 5   0  0.1792268E+06  0.9118800E+02  0.7546771E-02  0.1180000E+00
      -11   -1    0    0    0    0  0.00000000000E+00  0.00000000000E+00  0.34996269501E-01  0.35000000000E-01  0.51099999109E-03 0. -1.
       11   -1    0    0    0    0 -0.00000000000E+00 -0.00000000000E+00 -0.34996269501E-01  0.35000000000E-01  0.51099999109E-03 0.  1.
       22    1    1    2    0    0 -0.49758457472E-02  0.51537813270E-02  0.36440746820E-02  0.80373990292E-02  0.00000000000E+00 0. -1.
       22    1    1    2    0    0  0.68940445201E-02 -0.48004296765E-02 -0.32231720513E-01  0.33308494144E-01  0.00000000000E+00 0.  1.
       22    1    1    2    0    0 -0.19181987729E-02 -0.35335165051E-03  0.28587645831E-01  0.28654106827E-01  0.00000000000E+00 0. -1.
</event>
<event>
 5   0  0.1792268E+06  0.9118800E+02  0.7546771E-02  0.1180000E+00
      -11   -1    0    0    0    0  0.00000000000E+00  0.00000000000E+00  0.34996269501E-01  0.35000000000E-01  0.51099999109E-03 0. -1.
       11   -1    0    0    0    0 -0.00000000000E+00 -0.00000000000E+00 -0.34996269501E-01  0.35000000000E-01  0.51099999109E-03 0. -1.
       22    1    1    2    0    0 -0.23965024559E-08  0.14497298747E-08  0.35000097853E-01  0.34999998458E-01  0.00000000000E+00 0. -1.
       22    1    1    2    0    0  0.23963713297E-08 -0.14496505517E-08  0.27069556446E-09  0.28137800839E-08  0.00000000000E+00 0.  1.
       22    1    1    2    0    0  0.13112618716E-12 -0.79322910938E-13 -0.35000098124E-01  0.34999998728E-01  0.00000000000E+00 0. -1.
</event>
<event>
 5   0  0.1792268E+06  0.9118800E+02  0.7546771E-02  0.1180000E+00
      -11   -1    0    0    0    0  0.00000000000E+00  0.00000000000E+00  0.34996269501E-01  0.35000000000E-01  0.51099999109E-03 0.  1.
       11   -1    0    0    0    0 -0.00000000000E+00 -0.00000000000E+00 -0.34996269501E-01  0.35000000000E-01  0.51099999109E-03 0. -1.
       22    1    1    2    0    0 -0.22946475479E-01  0.41079527529E-03 -0.23554544875E-01  0.32886563729E-01  0.00000000000E+00 0. -1.
       22    1    1    2    0    0  0.21999687664E-01 -0.13437819136E-02  0.11265752081E-01  0.24752962996E-01  0.00000000000E+00 0.  1.
       22    1    1    2    0    0  0.94678781517E-03  0.93298663829E-03  0.12288792794E-01  0.12360473274E-01  0.00000000000E+00 0.  1.
</event>
<event>
 5   0  0.1792268E+06  0.9118800E+02  0.7546771E-02  0.1180000E+00
      -11   -1    0    0    0    0  0.00000000000E+00  0.00000000000E+00  0.34996269501E-01  0.35000000000E-01  0.51099999109E-03 0.  1.
       11   -1    0    0    0    0 -0.00000000000E+00 -0.00000000000E+00 -0.34996269501E-01  0.35000000000E-01  0.51099999109E-03 0. -1.
       22    1    1    2    0    0  0.32901708916E-06 -0.19310405319E-05  0.52517191497E-05  0.56051515420E-05  0.00000000000E+00 0. -1.
       22    1    1    2    0    0 -0.96973899177E-03  0.18279489169E-03 -0.34985917443E-01  0.34999831814E-01  0.00000000000E+00 0. -1.
       22    1    1    2    0    0  0.96940997468E-03 -0.18086385116E-03  0.34980665724E-01  0.34994563034E-01  0.00000000000E+00 0.  1.
</event>
<event>
 5   0  0.1792268E+06  0.9118800E+02  0.7546771E-02  0.1180000E+00
      -11   -1    0    0    0    0  0.00000000000E+00  0.00000000000E+00  0.34996269501E-01  0.35000000000E-01  0.51099999109E-03 0.  1.
       11   -1    0    0    0    0 -0.00000000000E+00 -0.00000000000E+00 -0.34996269501E-01  0.35000000000E-01  0.51099999109E-03 0. -1.
       22    1    1    2    0    0 -0.10888452076E-02 -0.13558544427E-02 -0.34956774189E-01  0.34999999813E-01  0.00000000000E+00 0. -1.
       22    1    1    2    0    0 -0.19309757941E-08  0.72134957292E-08  0.52423572288E-07  0.52952753654E-07  0.00000000000E+00 0.  1.
       22    1    1    2    0    0  0.10888471386E-02  0.13558472292E-02  0.34956721766E-01  0.34999947235E-01  0.00000000000E+00 0.  1.
</event>
<event>
 5   0  0.1792268E+06  0.9118800E+02  0.7546771E-02  0.1180000E+00
      -11   -1    0    0    0    0  0.00000000000E+00  0.00000000000E+00  0.34996269501E-01  0.35000000000E-01  0.51099999109E-03 0.  1.
       11   -1    0    0    0    0 -0.00000000000E+00 -0.00000000000E+00 -0.34996269501E-01  0.35000000000E-01  0.51099999109E-03 0. -1.
       22    1    1    2    0    0  0.24257520415E-01 -0.15794527102E-02 -0.25180889865E-01  0.34999988314E-01  0.00000000000E+00 0. -1.
       22    1    1    2    0    0 -0.24257532328E-01  0.15794483971E-02  0.25180841055E-01  0.34999961259E-01  0.00000000000E+00 0.  1.
       22    1    1    2    0    0  0.11912594781E-07  0.43130960832E-08  0.48809888425E-07  0.50427352898E-07  0.00000000000E+00 0.  1.
</event>
<event>
 5   0  0.1792268E+06  0.9118800E+02  0.7546771E-02  0.1180000E+00
      -11   -1    0    0    0    0  0.00000000000E+00  0.00000000000E+00  0.34996269501E-01  0.35000000000E-01  0.51099999109E-03 0. -1.
       11   -1    0    0    0    0 -0.00000000000E+00 -0.00000000000E+00 -0.34996269501E-01  0.35000000000E-01  0.51099999109E-03 0.  1.
       22    1    1    2    0    0 -0.54426002634E-02 -0.15563208635E-03 -0.34573880639E-01  0.34999990592E-01  0.00000000000E+00 0.  1.
       22    1    1    2    0    0  0.54425838375E-02  0.15565403883E-03  0.34573873491E-01  0.34999981074E-01  0.00000000000E+00 0. -1.
       22    1    1    2    0    0  0.16425875818E-07 -0.21952481216E-07  0.71485136073E-08  0.28334115033E-07  0.00000000000E+00 0.  1.
</event>
<event>
 5   0  0.1792268E+06  0.9118800E+02  0.7546771E-02  0.1180000E+00
      -11   -1    0    0    0    0  0.00000000000E+00  0.00000000000E+00  0.34996269501E-01  0.35000000000E-01  0.51099999109E-03 0.  1.
       11   -1    0    0    0    0 -0.00000000000E+00 -0.00000000000E+00 -0.34996269501E-01  0.35000000000E-01  0.51099999109E-03 0. -1.
       22    1    1    2    0    0  0.15854708540E-07 -0.18799081994E-09  0.41510196043E-07  0.44435385663E-07  0.00000000000E+00 0. -1.
       22    1    1    2    0    0  0.18115868162E-02 -0.21742655300E-03 -0.34952406867E-01  0.34999998098E-01  0.00000000000E+00 0. -1.
       22    1    1    2    0    0 -0.18116026709E-02  0.21742674099E-03  0.34952365357E-01  0.34999957466E-01  0.00000000000E+00 0.  1.
</event>
<event>
 5   0  0.1792268E+06  0.9118800E+02  0.7546771E-02  0.1180000E+00
      -11   -1    0    0    0    0  0.00000000000E+00  0.00000000000E+00  0.34996269501E-01  0.35000000000E-01  0.51099999109E-03 0. -1.
       11   -1    0    0    0    0 -0.00000000000E+00 -0.00000000000E+00 -0.34996269501E-01  0.35000000000E-01  0.51099999109E-03 0.  1.
       22    1    1    2    0    0 -0.85154502828E-03  0.84184979388E-04  0.34978243856E-01  0.34988709026E-01  0.00000000000E+00 0. -1.
       22    1    1    2    0    0  0.83893337443E-03 -0.84953538148E-04 -0.34986199733E-01  0.34996359783E-01  0.00000000000E+00 0.  1.
       22    1    1    2    0    0  0.12611653844E-04  0.76855876055E-06  0.79558765041E-05  0.14931191051E-04  0.00000000000E+00 0. -1.
</event>
<event>
 5   0  0.1792268E+06  0.9118800E+02  0.7546771E-02  0.1180000E+00
      -11   -1    0    0    0    0  0.00000000000E+00  0.00000000000E+00  0.34996269501E-01  0.35000000000E-01  0.51099999109E-03 0. -1.
       11   -1    0    0    0    0 -0.00000000000E+00 -0.00000000000E+00 -0.34996269501E-01  0.35000000000E-01  0.51099999109E-03 0.  1.
       22    1    1    2    0    0  0.60517650760E-07 -0.32133424264E-07  0.34625338455E-05  0.34632117427E-05  0.00000000000E+00 0.  1.
       22    1    1    2    0    0 -0.11420445304E-01  0.70352936059E-02 -0.32327537991E-01  0.34999880565E-01  0.00000000000E+00 0.  1.
       22    1    1    2    0    0  0.11420384786E-01 -0.70352614725E-02  0.32324075457E-01  0.34996656223E-01  0.00000000000E+00 0. -1.
</event>
<event>
 5   0  0.1792268E+06  0.9118800E+02  0.7546771E-02  0.1180000E+00
      -11   -1    0    0    0    0  0.00000000000E+00  0.00000000000E+00  0.34996269501E-01  0.35000000000E-01  0.51099999109E-03 0. -1.
       11   -1    0    0    0    0 -0.00000000000E+00 -0.00000000000E+00 -0.34996269501E-01  0.35000000000E-01  0.51099999109E-03 0.  1.
       22    1    1    2    0    0  0.86914822472E-08 -0.45823145133E-09  0.15042519283E-06  0.15067677484E-06  0.00000000000E+00 0. -1.
       22    1    1    2    0    0  0.25120220766E-01  0.39224148536E-02 -0.24053841657E-01  0.34999973258E-01  0.00000000000E+00 0.  1.
       22    1    1    2    0    0 -0.25120229458E-01 -0.39224143954E-02  0.24053691232E-01  0.34999876065E-01  0.00000000000E+00 0. -1.
</event>
<event>
 5   0  0.1792268E+06  0.9118800E+02  0.7546771E-02  0.1180000E+00
      -11   -1    0    0    0    0  0.00000000000E+00  0.00000000000E+00  0.34996269501E-01  0.35000000000E-01  0.51099999109E-03 0. -1.
       11   -1    0    0    0    0 -0.00000000000E+00 -0.00000000000E+00 -0.34996269501E-01  0.35000000000E-01  0.51099999109E-03 0.  1.
       22    1    1    2    0    0 -0.10136234531E-04 -0.93255727969E-05  0.77317040158E-04  0.78534287144E-04  0.00000000000E+00 0. -1.
       22    1    1    2    0    0 -0.81646646006E-02 -0.21154392627E-02  0.33887930671E-01  0.34921750765E-01  0.00000000000E+00 0. -1.
       22    1    1    2    0    0  0.81748008351E-02  0.21247648355E-02 -0.33965247712E-01  0.34999714948E-01  0.00000000000E+00 0.  1.
</event>
<event>
 5   0  0.1792268E+06  0.9118800E+02  0.7546771E-02  0.1180000E+00
      -11   -1    0    0    0    0  0.00000000000E+00  0.00000000000E+00  0.34996269501E-01  0.35000000000E-01  0.51099999109E-03 0. -1.
       11   -1    0    0    0    0 -0.00000000000E+00 -0.00000000000E+00 -0.34996269501E-01  0.35000000000E-01  0.51099999109E-03 0.  1.
       22    1    1    2    0    0  0.12365871725E-01 -0.11066709137E-01 -0.30815777127E-01  0.34999985066E-01  0.00000000000E+00 0.  1.
       22    1    1    2    0    0  0.12347605469E-07 -0.93172519949E-08  0.18325673859E-06  0.18390841956E-06  0.00000000000E+00 0.  1.
       22    1    1    2    0    0 -0.12365884072E-01  0.11066718454E-01  0.30815593871E-01  0.34999831026E-01  0.00000000000E+00 0. -1.
</event>
<event>
 5   0  0.1792268E+06  0.9118800E+02  0.7546771E-02  0.1180000E+00
      -11   -1    0    0    0    0  0.00000000000E+00  0.00000000000E+00  0.34996269501E-01  0.35000000000E-01  0.51099999109E-03 0.  1.
       11   -1    0    0    0    0 -0.00000000000E+00 -0.00000000000E+00 -0.34996269501E-01  0.35000000000E-01  0.51099999109E-03 0. -1.
       22    1    1    2    0    0 -0.38347283861E-02 -0.87646173820E-03 -0.34777786210E-01  0.34999539149E-01  0.00000000000E+00 0. -1.
       22    1    1    2    0    0  0.38352679452E-02  0.87867293779E-03  0.34774896902E-01  0.34996782722E-01  0.00000000000E+00 0.  1.
       22    1    1    2    0    0 -0.53955912544E-06 -0.22111995929E-05  0.28893082150E-05  0.36781285528E-05  0.00000000000E+00 0.  1.
</event>
<event>
 5   0  0.1792268E+06  0.9118800E+02  0.7546771E-02  0.1180000E+00
      -11   -1    0    0    0    0  0.00000000000E+00  0.00000000000E+00  0.34996269501E-01  0.35000000000E-01  0.51099999109E-03 0. -1.
       11   -1    0    0    0    0 -0.00000000000E+00 -0.00000000000E+00 -0.34996269501E-01  0.35000000000E-01  0.51099999109E-03 0.  1.
       22    1    1    2    0    0  0.28908721513E-02  0.46857274114E-02 -0.34555587451E-01  0.34991453346E-01  0.00000000000E+00 0.  1.
       22    1    1    2    0    0 -0.26993858044E-02 -0.42677400155E-02  0.29215633552E-01  0.29648836949E-01  0.00000000000E+00 0. -1.
       22    1    1    2    0    0 -0.19148634688E-03 -0.41798739592E-03  0.53399538989E-02  0.53597097054E-02  0.00000000000E+00 0. -1.
</event>
<event>
 5   0  0.1792268E+06  0.9118800E+02  0.7546771E-02  0.1180000E+00
      -11   -1    0    0    0    0  0.00000000000E+00  0.00000000000E+00  0.34996269501E-01  0.35000000000E-01  0.51099999109E-03 0. -1.
       11   -1    0    0    0    0 -0.00000000000E+00 -0.00000000000E+00 -0.34996269501E-01  0.35000000000E-01  0.51099999109E-03 0.  1.
       22    1    1    2    0    0  0.20535856389E-07 -0.40010632176E-07  0.39658195911E-06  0.39912381835E-06  0.00000000000E+00 0.  1.
       22    1    1    2    0    0 -0.43211660849E-03 -0.44489919433E-02 -0.34713388975E-01  0.34999994689E-01  0.00000000000E+00 0.  1.
       22    1    1    2    0    0  0.43209607263E-03  0.44490319539E-02  0.34712992393E-01  0.34999606187E-01  0.00000000000E+00 0. -1.
</event>
<event>
 5   0  0.1792268E+06  0.9118800E+02  0.7546771E-02  0.1180000E+00
      -11   -1    0    0    0    0  0.00000000000E+00  0.00000000000E+00  0.34996269501E-01  0.35000000000E-01  0.51099999109E-03 0. -1.
       11   -1    0    0    0    0 -0.00000000000E+00 -0.00000000000E+00 -0.34996269501E-01  0.35000000000E-01  0.51099999109E-03 0. -1.
       22    1    1    2    0    0  0.37666334034E-05  0.72078549761E-05  0.43757416504E-04  0.44506765774E-04  0.00000000000E+00 0. -1.
       22    1    1    2    0    0 -0.37669659779E-05 -0.72084913928E-05  0.34958310695E-01  0.34955866854E-01  0.00000000000E+00 0. -1.
       22    1    1    2    0    0  0.33257442021E-09  0.63641664396E-09 -0.35002068111E-01  0.34999626381E-01  0.00000000000E+00 0. -1.
</event>
<event>
 5   0  0.1792268E+06  0.9118800E+02  0.7546771E-02  0.1180000E+00
      -11   -1    0    0    0    0  0.00000000000E+00  0.00000000000E+00  0.34996269501E-01  0.35000000000E-01  0.51099999109E-03 0. -1.
       11   -1    0    0    0    0 -0.00000000000E+00 -0.00000000000E+00 -0.34996269501E-01  0.35000000000E-01  0.51099999109E-03 0.  1.
       22    1    1    2    0    0 -0.59717507193E-04  0.73552443931E-02 -0.34217753127E-01  0.34999397357E-01  0.00000000000E+00 0.  1.
       22    1    1    2    0    0 -0.27144861804E-05 -0.13904027831E-05  0.25194412935E-05  0.39559119750E-05  0.00000000000E+00 0. -1.
       22    1    1    2    0    0  0.62431993373E-04 -0.73538539903E-02  0.34215233686E-01  0.34996646731E-01  0.00000000000E+00 0. -1.
</event>
<event>
 5   0  0.1792268E+06  0.9118800E+02  0.7546771E-02  0.1180000E+00
      -11   -1    0    0    0    0  0.00000000000E+00  0.00000000000E+00  0.34996269501E-01  0.35000000000E-01  0.51099999109E-03 0. -1.
       11   -1    0    0    0    0 -0.00000000000E+00 -0.00000000000E+00 -0.34996269501E-01  0.35000000000E-01  0.51099999109E-03 0.  1.
       22    1    1    2    0    0  0.62370968380E-02 -0.10094300640E-02 -0.34424578400E-01  0.34999598913E-01  0.00000000000E+00 0.  1.
       22    1    1    2    0    0  0.10273127873E-05 -0.58710114200E-06  0.89806699845E-06  0.14854573867E-05  0.00000000000E+00 0. -1.
       22    1    1    2    0    0 -0.62381241508E-02  0.10100171651E-02  0.34423680333E-01  0.34998915630E-01  0.00000000000E+00 0. -1.
</event>
<event>
 5   0  0.1792268E+06  0.9118800E+02  0.7546771E-02  0.1180000E+00
      -11   -1    0    0    0    0  0.00000000000E+00  0.00000000000E+00  0.34996269501E-01  0.35000000000E-01  0.51099999109E-03 0. -1.
       11   -1    0    0    0    0 -0.00000000000E+00 -0.00000000000E+00 -0.34996269501E-01  0.35000000000E-01  0.51099999109E-03 0.  1.
       22    1    1    2    0    0  0.35022053470E-03 -0.15889021439E-02  0.34320976730E-01  0.34359521361E-01  0.00000000000E+00 0. -1.
       22    1    1    2    0    0 -0.56250163942E-03  0.12651124237E-02 -0.34908995649E-01  0.34936440785E-01  0.00000000000E+00 0.  1.
       22    1    1    2    0    0  0.21228110472E-03  0.32378972020E-03  0.58801891907E-03  0.70403785375E-03  0.00000000000E+00 0. -1.
</event>
<event>
 5   0  0.1792268E+06  0.9118800E+02  0.7546771E-02  0.1180000E+00
      -11   -1    0    0    0    0  0.00000000000E+00  0.00000000000E+00  0.34996269501E-01  0.35000000000E-01  0.51099999109E-03 0.  1.
       11   -1    0    0    0    0 -0.00000000000E+00 -0.00000000000E+00 -0.34996269501E-01  0.35000000000E-01  0.51099999109E-03 0. -1.
       22    1    1    2    0    0  0.11557713589E-02 -0.12191850075E-02 -0.34959656372E-01  0.34999997045E-01  0.00000000000E+00 0. -1.
       22    1    1    2    0    0 -0.11557949810E-02  0.12192329776E-02  0.34959163352E-01  0.34999507045E-01  0.00000000000E+00 0.  1.
       22    1    1    2    0    0  0.23622102930E-07 -0.47970092017E-07  0.49301961308E-06  0.49591075039E-06  0.00000000000E+00 0.  1.
</event>
<event>
 5   0  0.1792268E+06  0.9118800E+02  0.7546771E-02  0.1180000E+00
      -11   -1    0    0    0    0  0.00000000000E+00  0.00000000000E+00  0.34996269501E-01  0.35000000000E-01  0.51099999109E-03 0.  1.
       11   -1    0    0    0    0 -0.00000000000E+00 -0.00000000000E+00 -0.34996269501E-01  0.35000000000E-01  0.51099999109E-03 0. -1.
       22    1    1    2    0    0 -0.11793814691E-06  0.64828913918E-06  0.54113762095E-05  0.54513466864E-05  0.00000000000E+00 0.  1.
       22    1    1    2    0    0  0.16173682811E-01  0.51206575265E-03 -0.31034311466E-01  0.34999695930E-01  0.00000000000E+00 0. -1.
       22    1    1    2    0    0 -0.16173564872E-01 -0.51271404179E-03  0.31028900090E-01  0.34994852724E-01  0.00000000000E+00 0.  1.
</event>
<event>
 5   0  0.1792268E+06  0.9118800E+02  0.7546771E-02  0.1180000E+00
      -11   -1    0    0    0    0  0.00000000000E+00  0.00000000000E+00  0.34996269501E-01  0.35000000000E-01  0.51099999109E-03 0.  1.
       11   -1    0    0    0    0 -0.00000000000E+00 -0.00000000000E+00 -0.34996269501E-01  0.35000000000E-01  0.51099999109E-03 0. -1.
       22    1    1    2    0    0  0.14991809853E-01  0.80952685151E-03 -0.31616168256E-01  0.34999882737E-01  0.00000000000E+00 0. -1.
       22    1    1    2    0    0 -0.14992029442E-01 -0.80931268868E-03  0.31615117934E-01  0.34999023069E-01  0.00000000000E+00 0.  1.
       22    1    1    2    0    0  0.21958839037E-06 -0.21416283828E-06  0.10503216373E-05  0.10941939153E-05  0.00000000000E+00 0. -1.
</event>
<event>
 5   0  0.1792268E+06  0.9118800E+02  0.7546771E-02  0.1180000E+00
      -11   -1    0    0    0    0  0.00000000000E+00  0.00000000000E+00  0.34996269501E-01  0.35000000000E-01  0.51099999109E-03 0. -1.
       11   -1    0    0    0    0 -0.00000000000E+00 -0.00000000000E+00 -0.34996269501E-01  0.35000000000E-01  0.51099999109E-03 0.  1.
       22    1    1    2    0    0  0.38381137422E-04  0.43077971393E-04  0.28459035100E-02  0.28464882946E-02  0.00000000000E+00 0.  1.
       22    1    1    2    0    0  0.92326081936E-03 -0.27984242476E-03  0.32139558721E-01  0.32154034850E-01  0.00000000000E+00 0. -1.
       22    1    1    2    0    0 -0.96164195678E-03  0.23676445337E-03 -0.34985462231E-01  0.34999476856E-01  0.00000000000E+00 0.  1.
</event>
<event>
 5   0  0.1792268E+06  0.9118800E+02  0.7546771E-02  0.1180000E+00
      -11   -1    0    0    0    0  0.00000000000E+00  0.00000000000E+00  0.34996269501E-01  0.35000000000E-01  0.51099999109E-03 0. -1.
       11   -1    0    0    0    0 -0.00000000000E+00 -0.00000000000E+00 -0.34996269501E-01  0.35000000000E-01  0.51099999109E-03 0.  1.
       22    1    1    2    0    0 -0.71225807335E-06 -0.25846966561E-06  0.47879195137E-05  0.48475036257E-05  0.00000000000E+00 0. -1.
       22    1    1    2    0    0 -0.86071960915E-03 -0.96856871206E-03  0.34971174860E-01  0.34995171591E-01  0.00000000000E+00 0. -1.
       22    1    1    2    0    0  0.86143186722E-03  0.96882718173E-03 -0.34975962780E-01  0.34999980905E-01  0.00000000000E+00 0.  1.
</event>
<event>
 5   0  0.1792268E+06  0.9118800E+02  0.7546771E-02  0.1180000E+00
      -11   -1    0    0    0    0  0.00000000000E+00  0.00000000000E+00  0.34996269501E-01  0.35000000000E-01  0.51099999109E-03 0.  1.
       11   -1    0    0    0    0 -0.00000000000E+00 -0.00000000000E+00 -0.34996269501E-01  0.35000000000E-01  0.51099999109E-03 0. -1.
       22    1    1    2    0    0  0.20587087167E-01  0.15209683178E-01  0.23870548652E-01  0.34999510187E-01  0.00000000000E+00 0.  1.
       22    1    1    2    0    0 -0.80791126839E-07 -0.61830141035E-07  0.62171753538E-06  0.62998640169E-06  0.00000000000E+00 0. -1.
       22    1    1    2    0    0 -0.20587006376E-01 -0.15209621348E-01 -0.23871170369E-01  0.34999859826E-01  0.00000000000E+00 0. -1.
</event>
<event>
 5   0  0.1792268E+06  0.9118800E+02  0.7546771E-02  0.1180000E+00
      -11   -1    0    0    0    0  0.00000000000E+00  0.00000000000E+00  0.34996269501E-01  0.35000000000E-01  0.51099999109E-03 0. -1.
       11   -1    0    0    0    0 -0.00000000000E+00 -0.00000000000E+00 -0.34996269501E-01  0.35000000000E-01  0.51099999109E-03 0. -1.
       22    1    1    2    0    0 -0.83214762845E-04 -0.18130585175E-03  0.34999044253E-01  0.34999612786E-01  0.00000000000E+00 0. -1.
       22    1    1    2    0    0 -0.98515829341E-08 -0.41811264839E-07  0.38590566172E-06  0.38828908728E-06  0.00000000000E+00 0. -1.
       22    1    1    2    0    0  0.83224614428E-04  0.18134766301E-03 -0.34999430159E-01  0.34999998925E-01  0.00000000000E+00 0. -1.
</event>
<event>
 5   0  0.1792268E+06  0.9118800E+02  0.7546771E-02  0.1180000E+00
      -11   -1    0    0    0    0  0.00000000000E+00  0.00000000000E+00  0.34996269501E-01  0.35000000000E-01  0.51099999109E-03 0.  1.
       11   -1    0    0    0    0 -0.00000000000E+00 -0.00000000000E+00 -0.34996269501E-01  0.35000000000E-01  0.51099999109E-03 0. -1.
       22    1    1    2    0    0  0.13855984946E-03 -0.35506928416E-03  0.94102501197E-03  0.10152837542E-02  0.00000000000E+00 0.  1.
       22    1    1    2    0    0 -0.35099449245E-03 -0.28455156695E-03  0.34017097032E-01  0.34020097842E-01  0.00000000000E+00 0.  1.
       22    1    1    2    0    0  0.21243464299E-03  0.63962085112E-03 -0.34958122044E-01  0.34964618404E-01  0.00000000000E+00 0. -1.
</event>
<event>
 5   0  0.1792268E+06  0.9118800E+02  0.7546771E-02  0.1180000E+00
      -11   -1    0    0    0    0  0.00000000000E+00  0.00000000000E+00  0.34996269501E-01  0.35000000000E-01  0.51099999109E-03 0.  1.
       11   -1    0    0    0    0 -0.00000000000E+00 -0.00000000000E+00 -0.34996269501E-01  0.35000000000E-01  0.51099999109E-03 0.  1.
       22    1    1    2    0    0 -0.23226235137E-02 -0.94858735144E-03 -0.33624755144E-02  0.41953116135E-02  0.00000000000E+00 0. -1.
       22    1    1    2    0    0 -0.24726205388E-03 -0.13595991194E-03  0.34520702132E-01  0.34521855386E-01  0.00000000000E+00 0.  1.
       22    1    1    2    0    0  0.25698855676E-02  0.10845472634E-02 -0.31158226617E-01  0.31282833001E-01  0.00000000000E+00 0.  1.
</event>
<event>
 5   0  0.1792268E+06  0.9118800E+02  0.7546771E-02  0.1180000E+00
      -11   -1    0    0    0    0  0.00000000000E+00  0.00000000000E+00  0.34996269501E-01  0.35000000000E-01  0.51099999109E-03 0. -1.
       11   -1    0    0    0    0 -0.00000000000E+00 -0.00000000000E+00 -0.34996269501E-01  0.35000000000E-01  0.51099999109E-03 0.  1.
       22    1    1    2    0    0  0.27745558000E-03  0.36431341169E-02  0.34808672968E-01  0.34999901737E-01  0.00000000000E+00 0. -1.
       22    1    1    2    0    0 -0.26603976075E-07 -0.62065275132E-07  0.90652888572E-07  0.11303900268E-06  0.00000000000E+00 0.  1.
       22    1    1    2    0    0 -0.27742897602E-03 -0.36430720516E-02 -0.34808763621E-01  0.34999985224E-01  0.00000000000E+00 0.  1.
</event>
<event>
 5   0  0.1792268E+06  0.9118800E+02  0.7546771E-02  0.1180000E+00
      -11   -1    0    0    0    0  0.00000000000E+00  0.00000000000E+00  0.34996269501E-01  0.35000000000E-01  0.51099999109E-03 0. -1.
       11   -1    0    0    0    0 -0.00000000000E+00 -0.00000000000E+00 -0.34996269501E-01  0.35000000000E-01  0.51099999109E-03 0.  1.
       22    1    1    2    0    0  0.96771033712E-03  0.56997177289E-02  0.25098947837E-01  0.25756172619E-01  0.00000000000E+00 0.  1.
       22    1    1    2    0    0 -0.14609985695E-02 -0.70855355602E-02  0.81869446802E-02  0.10925447093E-01  0.00000000000E+00 0. -1.
       22    1    1    2    0    0  0.49328823240E-03  0.13858178313E-02 -0.33285892517E-01  0.33318380287E-01  0.00000000000E+00 0.  1.
</event>
<event>
 5   0  0.1792268E+06  0.9118800E+02  0.7546771E-02  0.1180000E+00
      -11   -1    0    0    0    0  0.00000000000E+00  0.00000000000E+00  0.34996269501E-01  0.35000000000E-01  0.51099999109E-03 0.  1.
       11   -1    0    0    0    0 -0.00000000000E+00 -0.00000000000E+00 -0.34996269501E-01  0.35000000000E-01  0.51099999109E-03 0. -1.
       22    1    1    2    0    0  0.33273317559E-03  0.13609471399E-02 -0.34971941522E-01  0.34999994033E-01  0.00000000000E+00 0. -1.
       22    1    1    2    0    0 -0.87244254678E-07 -0.18110795791E-06  0.10562980126E-05  0.10752567804E-05  0.00000000000E+00 0. -1.
       22    1    1    2    0    0 -0.33264593133E-03 -0.13607660319E-02  0.34970885224E-01  0.34998930710E-01  0.00000000000E+00 0.  1.
</event>
<event>
 5   0  0.1792268E+06  0.9118800E+02  0.7546771E-02  0.1180000E+00
      -11   -1    0    0    0    0  0.00000000000E+00  0.00000000000E+00  0.34996269501E-01  0.35000000000E-01  0.51099999109E-03 0. -1.
       11   -1    0    0    0    0 -0.00000000000E+00 -0.00000000000E+00 -0.34996269501E-01  0.35000000000E-01  0.51099999109E-03 0. -1.
       22    1    1    2    0    0  0.63604925749E-03  0.21474618256E-03  0.27049853916E-02  0.27870451288E-02  0.00000000000E+00 0. -1.
       22    1    1    2    0    0 -0.78959767066E-03 -0.49647552074E-03  0.32246505250E-01  0.32259991526E-01  0.00000000000E+00 0. -1.
       22    1    1    2    0    0  0.15354841317E-03  0.28172933818E-03 -0.34951490642E-01  0.34952963345E-01  0.00000000000E+00 0. -1.
</event>
<event>
 5   0  0.1792268E+06  0.9118800E+02  0.7546771E-02  0.1180000E+00
      -11   -1    0    0    0    0  0.00000000000E+00  0.00000000000E+00  0.34996269501E-01  0.35000000000E-01  0.51099999109E-03 0. -1.
       11   -1    0    0    0    0 -0.00000000000E+00 -0.00000000000E+00 -0.34996269501E-01  0.35000000000E-01  0.51099999109E-03 0.  1.
       22    1    1    2    0    0  0.53980738081E-02 -0.29630015936E-01 -0.10382871335E-01  0.31857197968E-01  0.00000000000E+00 0.  1.
       22    1    1    2    0    0 -0.66333666263E-03 -0.17537564081E-03 -0.44590578588E-02  0.45115373357E-02  0.00000000000E+00 0. -1.
       22    1    1    2    0    0 -0.47347371455E-02  0.29805391577E-01  0.14841929194E-01  0.33631264696E-01  0.00000000000E+00 0. -1.
</event>
<event>
 5   0  0.1792268E+06  0.9118800E+02  0.7546771E-02  0.1180000E+00
      -11   -1    0    0    0    0  0.00000000000E+00  0.00000000000E+00  0.34996269501E-01  0.35000000000E-01  0.51099999109E-03 0.  1.
       11   -1    0    0    0    0 -0.00000000000E+00 -0.00000000000E+00 -0.34996269501E-01  0.35000000000E-01  0.51099999109E-03 0. -1.
       22    1    1    2    0    0 -0.27563491600E-02 -0.27506281077E-02 -0.34782171499E-01  0.34999469565E-01  0.00000000000E+00 0. -1.
       22    1    1    2    0    0  0.27563486626E-02  0.27547656966E-02  0.34677323455E-01  0.34895600783E-01  0.00000000000E+00 0.  1.
       22    1    1    2    0    0  0.49745548516E-09 -0.41375888877E-05  0.10484804372E-03  0.10492965222E-03  0.00000000000E+00 0.  1.
</event>
<event>
 5   0  0.1792268E+06  0.9118800E+02  0.7546771E-02  0.1180000E+00
      -11   -1    0    0    0    0  0.00000000000E+00  0.00000000000E+00  0.34996269501E-01  0.35000000000E-01  0.51099999109E-03 0. -1.
       11   -1    0    0    0    0 -0.00000000000E+00 -0.00000000000E+00 -0.34996269501E-01  0.35000000000E-01  0.51099999109E-03 0.  1.
       22    1    1    2    0    0  0.21092996472E-01  0.26051465339E-01  0.10067074528E-01  0.34999133361E-01  0.00000000000E+00 0. -1.
       22    1    1    2    0    0 -0.21092486074E-01 -0.26052440698E-01 -0.10067518754E-01  0.34999679555E-01  0.00000000000E+00 0.  1.
       22    1    1    2    0    0 -0.51039836339E-06  0.97535930785E-06  0.44422577652E-06  0.11870841627E-05  0.00000000000E+00 0. -1.
</event>
<event>
 5   0  0.1792268E+06  0.9118800E+02  0.7546771E-02  0.1180000E+00
      -11   -1    0    0    0    0  0.00000000000E+00  0.00000000000E+00  0.34996269501E-01  0.35000000000E-01  0.51099999109E-03 0. -1.
       11   -1    0    0    0    0 -0.00000000000E+00 -0.00000000000E+00 -0.34996269501E-01  0.35000000000E-01  0.51099999109E-03 0.  1.
       22    1    1    2    0    0 -0.46432338722E-08  0.80864860716E-09  0.55573994723E-07  0.55773492116E-07  0.00000000000E+00 0. -1.
       22    1    1    2    0    0  0.71901904381E-04  0.26709597507E-01 -0.22618388864E-01  0.34999989767E-01  0.00000000000E+00 0.  1.
       22    1    1    2    0    0 -0.71897261147E-04 -0.26709598315E-01  0.22618333290E-01  0.34999954460E-01  0.00000000000E+00 0. -1.
</event>
<event>
 5   0  0.1792268E+06  0.9118800E+02  0.7546771E-02  0.1180000E+00
      -11   -1    0    0    0    0  0.00000000000E+00  0.00000000000E+00  0.34996269501E-01  0.35000000000E-01  0.51099999109E-03 0. -1.
       11   -1    0    0    0    0 -0.00000000000E+00 -0.00000000000E+00 -0.34996269501E-01  0.35000000000E-01  0.51099999109E-03 0.  1.
       22    1    1    2    0    0  0.21257912048E-01  0.19699279409E-01 -0.19622291519E-01  0.34999925119E-01  0.00000000000E+00 0. -1.
       22    1    1    2    0    0 -0.36561875292E-08  0.33929829835E-07  0.29801763501E-06  0.29996518437E-06  0.00000000000E+00 0.  1.
       22    1    1    2    0    0 -0.21257908392E-01 -0.19699313339E-01  0.19621993501E-01  0.34999774916E-01  0.00000000000E+00 0.  1.
</event>
<event>
 5   0  0.1792268E+06  0.9118800E+02  0.7546771E-02  0.1180000E+00
      -11   -1    0    0    0    0  0.00000000000E+00  0.00000000000E+00  0.34996269501E-01  0.35000000000E-01  0.51099999109E-03 0.  1.
       11   -1    0    0    0    0 -0.00000000000E+00 -0.00000000000E+00 -0.34996269501E-01  0.35000000000E-01  0.51099999109E-03 0. -1.
       22    1    1    2    0    0  0.18037594245E-02  0.17839035487E-02 -0.34903265317E-01  0.34995339543E-01  0.00000000000E+00 0. -1.
       22    1    1    2    0    0 -0.11394902823E-04 -0.15869240373E-04  0.12530332718E-04  0.23209606597E-04  0.00000000000E+00 0. -1.
       22    1    1    2    0    0 -0.17923645217E-02 -0.17680343084E-02  0.34890734984E-01  0.34981450851E-01  0.00000000000E+00 0.  1.
</event>
<event>
 5   0  0.1792268E+06  0.9118800E+02  0.7546771E-02  0.1180000E+00
      -11   -1    0    0    0    0  0.00000000000E+00  0.00000000000E+00  0.34996269501E-01  0.35000000000E-01  0.51099999109E-03 0. -1.
       11   -1    0    0    0    0 -0.00000000000E+00 -0.00000000000E+00 -0.34996269501E-01  0.35000000000E-01  0.51099999109E-03 0.  1.
       22    1    1    2    0    0 -0.60740514197E-02 -0.21848706231E-02  0.14802649053E-02  0.66226085856E-02  0.00000000000E+00 0. -1.
       22    1    1    2    0    0 -0.83178426754E-02 -0.13010506464E-01 -0.26553434351E-01  0.30717172087E-01  0.00000000000E+00 0.  1.
       22    1    1    2    0    0  0.14391894095E-01  0.15195377087E-01  0.25073169445E-01  0.32660219327E-01  0.00000000000E+00 0. -1.
</event>
<event>
 5   0  0.1792268E+06  0.9118800E+02  0.7546771E-02  0.1180000E+00
      -11   -1    0    0    0    0  0.00000000000E+00  0.00000000000E+00  0.34996269501E-01  0.35000000000E-01  0.51099999109E-03 0. -1.
       11   -1    0    0    0    0 -0.00000000000E+00 -0.00000000000E+00 -0.34996269501E-01  0.35000000000E-01  0.51099999109E-03 0.  1.
       22    1    1    2    0    0 -0.48383706557E-02  0.18588018357E-01 -0.29258759102E-01  0.34999989160E-01  0.00000000000E+00 0.  1.
       22    1    1    2    0    0  0.80490647963E-08  0.67453383040E-08  0.11417030071E-06  0.11465227689E-06  0.00000000000E+00 0.  1.
       22    1    1    2    0    0  0.48383626066E-02 -0.18588025102E-01  0.29258644931E-01  0.34999896188E-01  0.00000000000E+00 0. -1.
</event>
<event>
 5   0  0.1792268E+06  0.9118800E+02  0.7546771E-02  0.1180000E+00
      -11   -1    0    0    0    0  0.00000000000E+00  0.00000000000E+00  0.34996269501E-01  0.35000000000E-01  0.51099999109E-03 0. -1.
       11   -1    0    0    0    0 -0.00000000000E+00 -0.00000000000E+00 -0.34996269501E-01  0.35000000000E-01  0.51099999109E-03 0.  1.
       22    1    1    2    0    0  0.11242454472E-01  0.14042472656E-02 -0.23331118977E-01  0.25936572743E-01  0.00000000000E+00 0.  1.
       22    1    1    2    0    0 -0.66015480402E-03 -0.44392757268E-02 -0.89198153141E-02  0.99852931144E-02  0.00000000000E+00 0.  1.
       22    1    1    2    0    0 -0.10582299668E-01  0.30350284611E-02  0.32250934291E-01  0.34078134143E-01  0.00000000000E+00 0. -1.
</event>
<event>
 5   0  0.1792268E+06  0.9118800E+02  0.7546771E-02  0.1180000E+00
      -11   -1    0    0    0    0  0.00000000000E+00  0.00000000000E+00  0.34996269501E-01  0.35000000000E-01  0.51099999109E-03 0.  1.
       11   -1    0    0    0    0 -0.00000000000E+00 -0.00000000000E+00 -0.34996269501E-01  0.35000000000E-01  0.51099999109E-03 0. -1.
       22    1    1    2    0    0 -0.96981579154E-03 -0.44365310729E-03  0.34886361931E-01  0.34902659204E-01  0.00000000000E+00 0.  1.
       22    1    1    2    0    0  0.96177048002E-03  0.42491795765E-03 -0.34982887450E-01  0.34998685291E-01  0.00000000000E+00 0. -1.
       22    1    1    2    0    0  0.80453115128E-05  0.18735149636E-04  0.96525519176E-04  0.98655505277E-04  0.00000000000E+00 0.  1.
</event>
<event>
 5   0  0.1792268E+06  0.9118800E+02  0.7546771E-02  0.1180000E+00
      -11   -1    0    0    0    0  0.00000000000E+00  0.00000000000E+00  0.34996269501E-01  0.35000000000E-01  0.51099999109E-03 0.  1.
       11   -1    0    0    0    0 -0.00000000000E+00 -0.00000000000E+00 -0.34996269501E-01  0.35000000000E-01  0.51099999109E-03 0. -1.
       22    1    1    2    0    0  0.28117405382E-05  0.41447076197E-05  0.26013072061E-04  0.26490836230E-04  0.00000000000E+00 0.  1.
       22    1    1    2    0    0 -0.19065013155E-01 -0.16742531288E-01  0.24078668054E-01  0.34979555968E-01  0.00000000000E+00 0.  1.
       22    1    1    2    0    0  0.19062201414E-01  0.16738386581E-01 -0.24104681126E-01  0.34993953195E-01  0.00000000000E+00 0. -1.
</event>
<event>
 5   0  0.1792268E+06  0.9118800E+02  0.7546771E-02  0.1180000E+00
      -11   -1    0    0    0    0  0.00000000000E+00  0.00000000000E+00  0.34996269501E-01  0.35000000000E-01  0.51099999109E-03 0.  1.
       11   -1    0    0    0    0 -0.00000000000E+00 -0.00000000000E+00 -0.34996269501E-01  0.35000000000E-01  0.51099999109E-03 0. -1.
       22    1    1    2    0    0  0.12290991148E-01 -0.22421014794E-01 -0.23900336613E-01  0.34999949400E-01  0.00000000000E+00 0. -1.
       22    1    1    2    0    0 -0.12290865420E-01  0.22420990746E-01  0.23900375929E-01  0.34999916690E-01  0.00000000000E+00 0.  1.
       22    1    1    2    0    0 -0.12572827188E-06  0.24048412916E-07 -0.39315822438E-07  0.13390914236E-06  0.00000000000E+00 0. -1.
</event>
<event>
 5   0  0.1792268E+06  0.9118800E+02  0.7546771E-02  0.1180000E+00
      -11   -1    0    0    0    0  0.00000000000E+00  0.00000000000E+00  0.34996269501E-01  0.35000000000E-01  0.51099999109E-03 0. -1.
       11   -1    0    0    0    0 -0.00000000000E+00 -0.00000000000E+00 -0.34996269501E-01  0.35000000000E-01  0.51099999109E-03 0.  1.
       22    1    1    2    0    0  0.63488457357E-10 -0.42865367991E-10  0.85347293373E-10  0.11468384575E-09  0.00000000000E+00 0.  1.
       22    1    1    2    0    0  0.20773110351E-01 -0.28930911256E-02 -0.28019777069E-01  0.34999999956E-01  0.00000000000E+00 0.  1.
       22    1    1    2    0    0 -0.20773110415E-01  0.28930911685E-02  0.28019776984E-01  0.34999999929E-01  0.00000000000E+00 0. -1.
</event>
<event>
 5   0  0.1792268E+06  0.9118800E+02  0.7546771E-02  0.1180000E+00
      -11   -1    0    0    0    0  0.00000000000E+00  0.00000000000E+00  0.34996269501E-01  0.35000000000E-01  0.51099999109E-03 0. -1.
       11   -1    0    0    0    0 -0.00000000000E+00 -0.00000000000E+00 -0.34996269501E-01  0.35000000000E-01  0.51099999109E-03 0.  1.
       22    1    1    2    0    0  0.93725209881E-07  0.61301125519E-07  0.29196526657E-07  0.11573538839E-06  0.00000000000E+00 0.  1.
       22    1    1    2    0    0  0.53256084248E-02  0.44738514127E-02  0.34301847222E-01  0.34999916777E-01  0.00000000000E+00 0. -1.
       22    1    1    2    0    0 -0.53257021500E-02 -0.44739127138E-02 -0.34301876418E-01  0.34999967488E-01  0.00000000000E+00 0.  1.
</event>
<event>
 5   0  0.1792268E+06  0.9118800E+02  0.7546771E-02  0.1180000E+00
      -11   -1    0    0    0    0  0.00000000000E+00  0.00000000000E+00  0.34996269501E-01  0.35000000000E-01  0.51099999109E-03 0. -1.
       11   -1    0    0    0    0 -0.00000000000E+00 -0.00000000000E+00 -0.34996269501E-01  0.35000000000E-01  0.51099999109E-03 0.  1.
       22    1    1    2    0    0  0.46249023337E-07 -0.47445257476E-08  0.20344610368E-06  0.20869067968E-06  0.00000000000E+00 0. -1.
       22    1    1    2    0    0 -0.66169521100E-02 -0.28559394981E-02 -0.34249956360E-01  0.34999999376E-01  0.00000000000E+00 0.  1.
       22    1    1    2    0    0  0.66169058609E-02  0.28559442426E-02  0.34249752914E-01  0.34999791933E-01  0.00000000000E+00 0. -1.
</event>
<event>
 5   0  0.1792268E+06  0.9118800E+02  0.7546771E-02  0.1180000E+00
      -11   -1    0    0    0    0  0.00000000000E+00  0.00000000000E+00  0.34996269501E-01  0.35000000000E-01  0.51099999109E-03 0.  1.
       11   -1    0    0    0    0 -0.00000000000E+00 -0.00000000000E+00 -0.34996269501E-01  0.35000000000E-01  0.51099999109E-03 0.  1.
       22    1    1    2    0    0  0.38378600556E-03  0.23474824917E-03 -0.34239339449E-01  0.34242294963E-01  0.00000000000E+00 0.  1.
       22    1    1    2    0    0 -0.35501565501E-03 -0.96501495977E-03  0.34813269338E-01  0.34828451186E-01  0.00000000000E+00 0.  1.
       22    1    1    2    0    0 -0.28770350549E-04  0.73026671059E-03 -0.57392988992E-03  0.92925385134E-03  0.00000000000E+00 0.  1.
</event>
<event>
 5   0  0.1792268E+06  0.9118800E+02  0.7546771E-02  0.1180000E+00
      -11   -1    0    0    0    0  0.00000000000E+00  0.00000000000E+00  0.34996269501E-01  0.35000000000E-01  0.51099999109E-03 0.  1.
       11   -1    0    0    0    0 -0.00000000000E+00 -0.00000000000E+00 -0.34996269501E-01  0.35000000000E-01  0.51099999109E-03 0. -1.
       22    1    1    2    0    0 -0.71915155391E-06 -0.18092169261E-04  0.34997120720E-03  0.35043928096E-03  0.00000000000E+00 0.  1.
       22    1    1    2    0    0  0.43250323879E-02 -0.34486861900E-01  0.18410811872E-02  0.34805734137E-01  0.00000000000E+00 0. -1.
       22    1    1    2    0    0 -0.43243132363E-02  0.34504954069E-01 -0.21910523944E-02  0.34843826582E-01  0.00000000000E+00 0.  1.
</event>
<event>
 5   0  0.1792268E+06  0.9118800E+02  0.7546771E-02  0.1180000E+00
      -11   -1    0    0    0    0  0.00000000000E+00  0.00000000000E+00  0.34996269501E-01  0.35000000000E-01  0.51099999109E-03 0.  1.
       11   -1    0    0    0    0 -0.00000000000E+00 -0.00000000000E+00 -0.34996269501E-01  0.35000000000E-01  0.51099999109E-03 0.  1.
       22    1    1    2    0    0  0.20934441281E-04  0.68200737693E-04  0.22604376017E-02  0.22615631193E-02  0.00000000000E+00 0.  1.
       22    1    1    2    0    0 -0.57789829849E-04 -0.32034478747E-03  0.32737726659E-01  0.32739344942E-01  0.00000000000E+00 0.  1.
       22    1    1    2    0    0  0.36855388568E-04  0.25214404978E-03 -0.34998164260E-01  0.34999091939E-01  0.00000000000E+00 0.  1.
</event>
<event>
 5   0  0.1792268E+06  0.9118800E+02  0.7546771E-02  0.1180000E+00
      -11   -1    0    0    0    0  0.00000000000E+00  0.00000000000E+00  0.34996269501E-01  0.35000000000E-01  0.51099999109E-03 0. -1.
       11   -1    0    0    0    0 -0.00000000000E+00 -0.00000000000E+00 -0.34996269501E-01  0.35000000000E-01  0.51099999109E-03 0.  1.
       22    1    1    2    0    0  0.75562052590E-02 -0.12090577206E-01 -0.31964381662E-01  0.34999999859E-01  0.00000000000E+00 0.  1.
       22    1    1    2    0    0 -0.75562048181E-02  0.12090577482E-01  0.31964381232E-01  0.34999999466E-01  0.00000000000E+00 0. -1.
       22    1    1    2    0    0 -0.44085840072E-09 -0.27663558544E-09  0.42996139485E-09  0.67509271784E-09  0.00000000000E+00 0. -1.
</event>
<event>
 5   0  0.1792268E+06  0.9118800E+02  0.7546771E-02  0.1180000E+00
      -11   -1    0    0    0    0  0.00000000000E+00  0.00000000000E+00  0.34996269501E-01  0.35000000000E-01  0.51099999109E-03 0.  1.
       11   -1    0    0    0    0 -0.00000000000E+00 -0.00000000000E+00 -0.34996269501E-01  0.35000000000E-01  0.51099999109E-03 0. -1.
       22    1    1    2    0    0 -0.18926643782E-01 -0.11765318305E-01  0.26945229487E-01  0.34966926542E-01  0.00000000000E+00 0.  1.
       22    1    1    2    0    0  0.18927044170E-01  0.11765824421E-01 -0.26982362046E-01  0.34995935291E-01  0.00000000000E+00 0. -1.
       22    1    1    2    0    0 -0.40038777071E-06 -0.50611538717E-06  0.37132559508E-04  0.37138166874E-04  0.00000000000E+00 0. -1.
</event>
<event>
 5   0  0.1792268E+06  0.9118800E+02  0.7546771E-02  0.1180000E+00
      -11   -1    0    0    0    0  0.00000000000E+00  0.00000000000E+00  0.34996269501E-01  0.35000000000E-01  0.51099999109E-03 0.  1.
       11   -1    0    0    0    0 -0.00000000000E+00 -0.00000000000E+00 -0.34996269501E-01  0.35000000000E-01  0.51099999109E-03 0.  1.
       22    1    1    2    0    0 -0.20106176761E-03 -0.33089942175E-03  0.30348899242E-01  0.30351369087E-01  0.00000000000E+00 0.  1.
       22    1    1    2    0    0 -0.18120723892E-02 -0.83624104517E-02 -0.58566030935E-03  0.85765093660E-02  0.00000000000E+00 0. -1.
       22    1    1    2    0    0  0.20131341568E-02  0.86933098735E-02 -0.29763238932E-01  0.31072121547E-01  0.00000000000E+00 0.  1.
</event>
<event>
 5   0  0.1792268E+06  0.9118800E+02  0.7546771E-02  0.1180000E+00
      -11   -1    0    0    0    0  0.00000000000E+00  0.00000000000E+00  0.34996269501E-01  0.35000000000E-01  0.51099999109E-03 0.  1.
       11   -1    0    0    0    0 -0.00000000000E+00 -0.00000000000E+00 -0.34996269501E-01  0.35000000000E-01  0.51099999109E-03 0. -1.
       22    1    1    2    0    0  0.16437678459E-07  0.10222126894E-07  0.20942110563E-07  0.28517733890E-07  0.00000000000E+00 0. -1.
       22    1    1    2    0    0  0.16445015134E-02  0.12060941365E-02 -0.34940530133E-01  0.34999995632E-01  0.00000000000E+00 0. -1.
       22    1    1    2    0    0 -0.16445179511E-02 -0.12061043586E-02  0.34940509191E-01  0.34999975850E-01  0.00000000000E+00 0.  1.
</event>
<event>
 5   0  0.1792268E+06  0.9118800E+02  0.7546771E-02  0.1180000E+00
      -11   -1    0    0    0    0  0.00000000000E+00  0.00000000000E+00  0.34996269501E-01  0.35000000000E-01  0.51099999109E-03 0. -1.
       11   -1    0    0    0    0 -0.00000000000E+00 -0.00000000000E+00 -0.34996269501E-01  0.35000000000E-01  0.51099999109E-03 0.  1.
       22    1    1    2    0    0  0.58315012563E-05  0.20563466394E-05  0.10236512205E-03  0.10255170979E-03  0.00000000000E+00 0. -1.
       22    1    1    2    0    0  0.11054913515E-02 -0.28527947191E-02 -0.34865721911E-01  0.34999701616E-01  0.00000000000E+00 0.  1.
       22    1    1    2    0    0 -0.11113228527E-02  0.28507383724E-02  0.34763356789E-01  0.34897746675E-01  0.00000000000E+00 0. -1.
</event>
<event>
 5   0  0.1792268E+06  0.9118800E+02  0.7546771E-02  0.1180000E+00
      -11   -1    0    0    0    0  0.00000000000E+00  0.00000000000E+00  0.34996269501E-01  0.35000000000E-01  0.51099999109E-03 0.  1.
       11   -1    0    0    0    0 -0.00000000000E+00 -0.00000000000E+00 -0.34996269501E-01  0.35000000000E-01  0.51099999109E-03 0. -1.
       22    1    1    2    0    0  0.70756300463E-02  0.14966339905E-01 -0.19701880397E-01  0.25733634836E-01  0.00000000000E+00 0. -1.
       22    1    1    2    0    0  0.37653226389E-03  0.49150924686E-03  0.25984618841E-01  0.25991994426E-01  0.00000000000E+00 0.  1.
       22    1    1    2    0    0 -0.74521623102E-02 -0.15457849152E-01 -0.62827384443E-02  0.18274370738E-01  0.00000000000E+00 0.  1.
</event>
<event>
 5   0  0.1792268E+06  0.9118800E+02  0.7546771E-02  0.1180000E+00
      -11   -1    0    0    0    0  0.00000000000E+00  0.00000000000E+00  0.34996269501E-01  0.35000000000E-01  0.51099999109E-03 0. -1.
       11   -1    0    0    0    0 -0.00000000000E+00 -0.00000000000E+00 -0.34996269501E-01  0.35000000000E-01  0.51099999109E-03 0.  1.
       22    1    1    2    0    0 -0.15253890808E-02 -0.50980131530E-03 -0.34279767241E-01  0.34317475888E-01  0.00000000000E+00 0.  1.
       22    1    1    2    0    0  0.18021320678E-02 -0.58319192624E-04  0.34810570803E-01  0.34857236275E-01  0.00000000000E+00 0. -1.
       22    1    1    2    0    0 -0.27674298701E-03  0.56812050793E-03 -0.53080356227E-03  0.82528783713E-03  0.00000000000E+00 0. -1.
</event>
<event>
 5   0  0.1792268E+06  0.9118800E+02  0.7546771E-02  0.1180000E+00
      -11   -1    0    0    0    0  0.00000000000E+00  0.00000000000E+00  0.34996269501E-01  0.35000000000E-01  0.51099999109E-03 0.  1.
       11   -1    0    0    0    0 -0.00000000000E+00 -0.00000000000E+00 -0.34996269501E-01  0.35000000000E-01  0.51099999109E-03 0. -1.
       22    1    1    2    0    0  0.33929305498E-01 -0.81002773140E-02 -0.27179968096E-02  0.34988566286E-01  0.00000000000E+00 0. -1.
       22    1    1    2    0    0 -0.33928411442E-01  0.81004407729E-02  0.26923319255E-02  0.34985752741E-01  0.00000000000E+00 0.  1.
       22    1    1    2    0    0 -0.89405581233E-06 -0.16345885586E-06  0.25664884138E-04  0.25680972186E-04  0.00000000000E+00 0.  1.
</event>
<event>
 5   0  0.1792268E+06  0.9118800E+02  0.7546771E-02  0.1180000E+00
      -11   -1    0    0    0    0  0.00000000000E+00  0.00000000000E+00  0.34996269501E-01  0.35000000000E-01  0.51099999109E-03 0. -1.
       11   -1    0    0    0    0 -0.00000000000E+00 -0.00000000000E+00 -0.34996269501E-01  0.35000000000E-01  0.51099999109E-03 0. -1.
       22    1    1    2    0    0  0.20780100127E-10 -0.13700311180E-11 -0.35002712616E-01  0.34999983785E-01  0.00000000000E+00 0. -1.
       22    1    1    2    0    0 -0.22518654607E-06  0.14846539409E-07  0.35001945191E-01  0.34999216302E-01  0.00000000000E+00 0. -1.
       22    1    1    2    0    0  0.22516576597E-06 -0.14845169378E-07  0.76742474236E-06  0.79991295551E-06  0.00000000000E+00 0.  1.
</event>
<event>
 5   0  0.1792268E+06  0.9118800E+02  0.7546771E-02  0.1180000E+00
      -11   -1    0    0    0    0  0.00000000000E+00  0.00000000000E+00  0.34996269501E-01  0.35000000000E-01  0.51099999109E-03 0.  1.
       11   -1    0    0    0    0 -0.00000000000E+00 -0.00000000000E+00 -0.34996269501E-01  0.35000000000E-01  0.51099999109E-03 0. -1.
       22    1    1    2    0    0  0.54551608283E-02 -0.18743136186E-01  0.29050556532E-01  0.34999982408E-01  0.00000000000E+00 0.  1.
       22    1    1    2    0    0 -0.54551725101E-02  0.18743111350E-01 -0.29050573729E-01  0.34999985203E-01  0.00000000000E+00 0. -1.
       22    1    1    2    0    0  0.11681787012E-07  0.24836528289E-07  0.17197498841E-07  0.32389369423E-07  0.00000000000E+00 0.  1.
</event>
<event>
 5   0  0.1792268E+06  0.9118800E+02  0.7546771E-02  0.1180000E+00
      -11   -1    0    0    0    0  0.00000000000E+00  0.00000000000E+00  0.34996269501E-01  0.35000000000E-01  0.51099999109E-03 0.  1.
       11   -1    0    0    0    0 -0.00000000000E+00 -0.00000000000E+00 -0.34996269501E-01  0.35000000000E-01  0.51099999109E-03 0.  1.
       22    1    1    2    0    0  0.19866117704E-06 -0.16230915036E-06  0.39711605781E-06  0.47277022635E-06  0.00000000000E+00 0. -1.
       22    1    1    2    0    0 -0.19867873212E-06  0.16232349313E-06  0.35002019526E-01  0.34999565043E-01  0.00000000000E+00 0.  1.
       22    1    1    2    0    0  0.17555084192E-10 -0.14342766122E-10 -0.35002416642E-01  0.34999962186E-01  0.00000000000E+00 0.  1.
</event>
<event>
 5   0  0.1792268E+06  0.9118800E+02  0.7546771E-02  0.1180000E+00
      -11   -1    0    0    0    0  0.00000000000E+00  0.00000000000E+00  0.34996269501E-01  0.35000000000E-01  0.51099999109E-03 0.  1.
       11   -1    0    0    0    0 -0.00000000000E+00 -0.00000000000E+00 -0.34996269501E-01  0.35000000000E-01  0.51099999109E-03 0. -1.
       22    1    1    2    0    0  0.29789590526E-02 -0.13601813793E-01 -0.32079028079E-01  0.34970667394E-01  0.00000000000E+00 0. -1.
       22    1    1    2    0    0 -0.29352455613E-02  0.13648416698E-01  0.31604650695E-01  0.34550671346E-01  0.00000000000E+00 0.  1.
       22    1    1    2    0    0 -0.43713491263E-04 -0.46602905177E-04  0.47437738361E-03  0.47866126036E-03  0.00000000000E+00 0. -1.
</event>
<event>
 5   0  0.1792268E+06  0.9118800E+02  0.7546771E-02  0.1180000E+00
      -11   -1    0    0    0    0  0.00000000000E+00  0.00000000000E+00  0.34996269501E-01  0.35000000000E-01  0.51099999109E-03 0.  1.
       11   -1    0    0    0    0 -0.00000000000E+00 -0.00000000000E+00 -0.34996269501E-01  0.35000000000E-01  0.51099999109E-03 0. -1.
       22    1    1    2    0    0  0.15004265401E-01  0.28905904556E-01 -0.11702421315E-01  0.34606732916E-01  0.00000000000E+00 0. -1.
       22    1    1    2    0    0 -0.15016172424E-01 -0.28943784877E-01  0.12258841520E-01  0.34835431858E-01  0.00000000000E+00 0.  1.
       22    1    1    2    0    0  0.11907023502E-04  0.37880321007E-04 -0.55642020449E-03  0.55783522647E-03  0.00000000000E+00 0. -1.
</event>
<event>
 5   0  0.1792268E+06  0.9118800E+02  0.7546771E-02  0.1180000E+00
      -11   -1    0    0    0    0  0.00000000000E+00  0.00000000000E+00  0.34996269501E-01  0.35000000000E-01  0.51099999109E-03 0.  1.
       11   -1    0    0    0    0 -0.00000000000E+00 -0.00000000000E+00 -0.34996269501E-01  0.35000000000E-01  0.51099999109E-03 0. -1.
       22    1    1    2    0    0  0.20054251484E-02  0.81353306897E-04 -0.34942378037E-01  0.34999973304E-01  0.00000000000E+00 0. -1.
       22    1    1    2    0    0 -0.20057726285E-02 -0.80920889141E-04  0.34927881826E-01  0.34985519875E-01  0.00000000000E+00 0.  1.
       22    1    1    2    0    0  0.34748008941E-06 -0.43241775604E-06  0.14496211163E-04  0.14506821348E-04  0.00000000000E+00 0.  1.
</event>
<event>
 5   0  0.1792268E+06  0.9118800E+02  0.7546771E-02  0.1180000E+00
      -11   -1    0    0    0    0  0.00000000000E+00  0.00000000000E+00  0.34996269501E-01  0.35000000000E-01  0.51099999109E-03 0. -1.
       11   -1    0    0    0    0 -0.00000000000E+00 -0.00000000000E+00 -0.34996269501E-01  0.35000000000E-01  0.51099999109E-03 0.  1.
       22    1    1    2    0    0  0.80853330182E-02  0.17540853415E-02  0.34002161714E-01  0.34994234191E-01  0.00000000000E+00 0. -1.
       22    1    1    2    0    0  0.44978893581E-06 -0.66258229952E-06  0.57848564567E-05  0.58400247958E-05  0.00000000000E+00 0. -1.
       22    1    1    2    0    0 -0.80857828072E-02 -0.17534227592E-02 -0.34007946570E-01  0.34999925784E-01  0.00000000000E+00 0.  1.
</event>
<event>
 5   0  0.1792268E+06  0.9118800E+02  0.7546771E-02  0.1180000E+00
      -11   -1    0    0    0    0  0.00000000000E+00  0.00000000000E+00  0.34996269501E-01  0.35000000000E-01  0.51099999109E-03 0.  1.
       11   -1    0    0    0    0 -0.00000000000E+00 -0.00000000000E+00 -0.34996269501E-01  0.35000000000E-01  0.51099999109E-03 0. -1.
       22    1    1    2    0    0  0.72942190024E-02  0.29334975427E-01  0.17642379996E-01  0.34999999801E-01  0.00000000000E+00 0.  1.
       22    1    1    2    0    0 -0.52249438537E-09 -0.10625903523E-08  0.33261447169E-09  0.12299313096E-08  0.00000000000E+00 0.  1.
       22    1    1    2    0    0 -0.72942184799E-02 -0.29334974364E-01 -0.17642380329E-01  0.34999998969E-01  0.00000000000E+00 0. -1.
</event>
<event>
 5   0  0.1792268E+06  0.9118800E+02  0.7546771E-02  0.1180000E+00
      -11   -1    0    0    0    0  0.00000000000E+00  0.00000000000E+00  0.34996269501E-01  0.35000000000E-01  0.51099999109E-03 0.  1.
       11   -1    0    0    0    0 -0.00000000000E+00 -0.00000000000E+00 -0.34996269501E-01  0.35000000000E-01  0.51099999109E-03 0.  1.
       22    1    1    2    0    0  0.17311455377E-05 -0.24470464558E-05  0.12015788720E-03  0.12019526928E-03  0.00000000000E+00 0. -1.
       22    1    1    2    0    0 -0.21646087049E-03  0.35572916807E-03  0.34877359669E-01  0.34879845413E-01  0.00000000000E+00 0.  1.
       22    1    1    2    0    0  0.21472972495E-03 -0.35328212161E-03 -0.34997517556E-01  0.34999959318E-01  0.00000000000E+00 0.  1.
</event>
<event>
 5   0  0.1792268E+06  0.9118800E+02  0.7546771E-02  0.1180000E+00
      -11   -1    0    0    0    0  0.00000000000E+00  0.00000000000E+00  0.34996269501E-01  0.35000000000E-01  0.51099999109E-03 0. -1.
       11   -1    0    0    0    0 -0.00000000000E+00 -0.00000000000E+00 -0.34996269501E-01  0.35000000000E-01  0.51099999109E-03 0.  1.
       22    1    1    2    0    0  0.11184909899E-03  0.11658391167E-03  0.81526276643E-03  0.83111696392E-03  0.00000000000E+00 0. -1.
       22    1    1    2    0    0 -0.32650285832E-02  0.37642266179E-02  0.33814651178E-01  0.34179825160E-01  0.00000000000E+00 0. -1.
       22    1    1    2    0    0  0.31531794842E-02 -0.38808105296E-02 -0.34629913945E-01  0.34989057876E-01  0.00000000000E+00 0.  1.
</event>
<event>
 5   0  0.1792268E+06  0.9118800E+02  0.7546771E-02  0.1180000E+00
      -11   -1    0    0    0    0  0.00000000000E+00  0.00000000000E+00  0.34996269501E-01  0.35000000000E-01  0.51099999109E-03 0. -1.
       11   -1    0    0    0    0 -0.00000000000E+00 -0.00000000000E+00 -0.34996269501E-01  0.35000000000E-01  0.51099999109E-03 0.  1.
       22    1    1    2    0    0  0.12755329385E-01 -0.72739028707E-02  0.31725835688E-01  0.34959072368E-01  0.00000000000E+00 0. -1.
       22    1    1    2    0    0 -0.12821727451E-01  0.72635764097E-02 -0.31716946595E-01  0.34973145961E-01  0.00000000000E+00 0.  1.
       22    1    1    2    0    0  0.66398066336E-04  0.10326460963E-04 -0.88890934095E-05  0.67781671496E-04  0.00000000000E+00 0. -1.
</event>
<event>
 5   0  0.1792268E+06  0.9118800E+02  0.7546771E-02  0.1180000E+00
      -11   -1    0    0    0    0  0.00000000000E+00  0.00000000000E+00  0.34996269501E-01  0.35000000000E-01  0.51099999109E-03 0.  1.
       11   -1    0    0    0    0 -0.00000000000E+00 -0.00000000000E+00 -0.34996269501E-01  0.35000000000E-01  0.51099999109E-03 0. -1.
       22    1    1    2    0    0 -0.10919348473E-05 -0.70598817547E-04 -0.20175662593E-03  0.21375481625E-03  0.00000000000E+00 0. -1.
       22    1    1    2    0    0  0.40612945146E-02 -0.15766418505E-01  0.30944678000E-01  0.34966371875E-01  0.00000000000E+00 0.  1.
       22    1    1    2    0    0 -0.40602025797E-02  0.15837017322E-01 -0.30742921374E-01  0.34819873309E-01  0.00000000000E+00 0. -1.
</event>
<event>
 5   0  0.1792268E+06  0.9118800E+02  0.7546771E-02  0.1180000E+00
      -11   -1    0    0    0    0  0.00000000000E+00  0.00000000000E+00  0.34996269501E-01  0.35000000000E-01  0.51099999109E-03 0.  1.
       11   -1    0    0    0    0 -0.00000000000E+00 -0.00000000000E+00 -0.34996269501E-01  0.35000000000E-01  0.51099999109E-03 0.  1.
       22    1    1    2    0    0 -0.72904431940E-10  0.81775997866E-11 -0.35000630357E-01  0.34999774400E-01  0.00000000000E+00 0.  1.
       22    1    1    2    0    0 -0.11125345881E-05  0.12479162608E-06  0.11632232548E-05  0.16144331823E-05  0.00000000000E+00 0. -1.
       22    1    1    2    0    0  0.11126074925E-05 -0.12479980368E-06  0.34999467134E-01  0.34998611167E-01  0.00000000000E+00 0.  1.
</event>
<event>
 5   0  0.1792268E+06  0.9118800E+02  0.7546771E-02  0.1180000E+00
      -11   -1    0    0    0    0  0.00000000000E+00  0.00000000000E+00  0.34996269501E-01  0.35000000000E-01  0.51099999109E-03 0.  1.
       11   -1    0    0    0    0 -0.00000000000E+00 -0.00000000000E+00 -0.34996269501E-01  0.35000000000E-01  0.51099999109E-03 0. -1.
       22    1    1    2    0    0  0.96605795860E-02 -0.28125988706E-02  0.33411610393E-01  0.34893741837E-01  0.00000000000E+00 0.  1.
       22    1    1    2    0    0 -0.11271602181E-04  0.32093212721E-03 -0.47620049794E-02  0.47728205396E-02  0.00000000000E+00 0.  1.
       22    1    1    2    0    0 -0.96493079838E-02  0.24916667434E-02 -0.28649605413E-01  0.30333437624E-01  0.00000000000E+00 0. -1.
</event>
<event>
 5   0  0.1792268E+06  0.9118800E+02  0.7546771E-02  0.1180000E+00
      -11   -1    0    0    0    0  0.00000000000E+00  0.00000000000E+00  0.34996269501E-01  0.35000000000E-01  0.51099999109E-03 0.  1.
       11   -1    0    0    0    0 -0.00000000000E+00 -0.00000000000E+00 -0.34996269501E-01  0.35000000000E-01  0.51099999109E-03 0.  1.
       22    1    1    2    0    0 -0.29389719034E-06 -0.61403826063E-07  0.12861203965E-05  0.13207012012E-05  0.00000000000E+00 0. -1.
       22    1    1    2    0    0  0.51718127177E-03  0.30618439390E-03  0.34993538189E-01  0.34998699123E-01  0.00000000000E+00 0.  1.
       22    1    1    2    0    0 -0.51688737458E-03 -0.30612299008E-03 -0.34994824309E-01  0.34999980175E-01  0.00000000000E+00 0.  1.
</event>
<event>
 5   0  0.1792268E+06  0.9118800E+02  0.7546771E-02  0.1180000E+00
      -11   -1    0    0    0    0  0.00000000000E+00  0.00000000000E+00  0.34996269501E-01  0.35000000000E-01  0.51099999109E-03 0.  1.
       11   -1    0    0    0    0 -0.00000000000E+00 -0.00000000000E+00 -0.34996269501E-01  0.35000000000E-01  0.51099999109E-03 0. -1.
       22    1    1    2    0    0  0.15261331492E-07  0.27752492840E-07  0.15122579045E-07  0.35097029713E-07  0.00000000000E+00 0. -1.
       22    1    1    2    0    0  0.79496836110E-02 -0.95841032958E-02  0.32710027761E-01  0.34999977451E-01  0.00000000000E+00 0.  1.
       22    1    1    2    0    0 -0.79496988723E-02  0.95840755433E-02 -0.32710042883E-01  0.34999987451E-01  0.00000000000E+00 0. -1.
</event>
<event>
 5   0  0.1792268E+06  0.9118800E+02  0.7546771E-02  0.1180000E+00
      -11   -1    0    0    0    0  0.00000000000E+00  0.00000000000E+00  0.34996269501E-01  0.35000000000E-01  0.51099999109E-03 0. -1.
       11   -1    0    0    0    0 -0.00000000000E+00 -0.00000000000E+00 -0.34996269501E-01  0.35000000000E-01  0.51099999109E-03 0.  1.
       22    1    1    2    0    0 -0.22336727544E-02 -0.34480661922E-01 -0.55757972940E-02  0.34999926515E-01  0.00000000000E+00 0.  1.
       22    1    1    2    0    0 -0.93074576516E-08 -0.17055190702E-07  0.15266336751E-06  0.15389480848E-06  0.00000000000E+00 0. -1.
       22    1    1    2    0    0  0.22336820619E-02  0.34480678977E-01  0.55756446306E-02  0.34999919591E-01  0.00000000000E+00 0. -1.
</event>
<event>
 5   0  0.1792268E+06  0.9118800E+02  0.7546771E-02  0.1180000E+00
      -11   -1    0    0    0    0  0.00000000000E+00  0.00000000000E+00  0.34996269501E-01  0.35000000000E-01  0.51099999109E-03 0.  1.
       11   -1    0    0    0    0 -0.00000000000E+00 -0.00000000000E+00 -0.34996269501E-01  0.35000000000E-01  0.51099999109E-03 0. -1.
       22    1    1    2    0    0 -0.23926573733E-01 -0.19955231130E-01  0.15841250498E-01  0.34951929809E-01  0.00000000000E+00 0.  1.
       22    1    1    2    0    0  0.23960495161E-01  0.19992270593E-01 -0.15844428142E-01  0.34997744427E-01  0.00000000000E+00 0. -1.
       22    1    1    2    0    0 -0.33921428515E-04 -0.37039462421E-04  0.31776440813E-05  0.50325763887E-04  0.00000000000E+00 0. -1.
</event>
<event>
 5   0  0.1792268E+06  0.9118800E+02  0.7546771E-02  0.1180000E+00
      -11   -1    0    0    0    0  0.00000000000E+00  0.00000000000E+00  0.34996269501E-01  0.35000000000E-01  0.51099999109E-03 0. -1.
       11   -1    0    0    0    0 -0.00000000000E+00 -0.00000000000E+00 -0.34996269501E-01  0.35000000000E-01  0.51099999109E-03 0.  1.
       22    1    1    2    0    0 -0.27622342608E-02  0.47712769629E-02  0.34549886664E-01  0.34986993161E-01  0.00000000000E+00 0. -1.
       22    1    1    2    0    0 -0.14082692207E-03 -0.10894716942E-03 -0.13895303077E-02  0.14008912105E-02  0.00000000000E+00 0. -1.
       22    1    1    2    0    0  0.29030611829E-02 -0.46623297935E-02 -0.33160356356E-01  0.33612115628E-01  0.00000000000E+00 0.  1.
</event>
<event>
 5   0  0.1792268E+06  0.9118800E+02  0.7546771E-02  0.1180000E+00
      -11   -1    0    0    0    0  0.00000000000E+00  0.00000000000E+00  0.34996269501E-01  0.35000000000E-01  0.51099999109E-03 0.  1.
       11   -1    0    0    0    0 -0.00000000000E+00 -0.00000000000E+00 -0.34996269501E-01  0.35000000000E-01  0.51099999109E-03 0. -1.
       22    1    1    2    0    0  0.59948534407E-05 -0.37720589465E-05 -0.23998724513E-03  0.24009174189E-03  0.00000000000E+00 0. -1.
       22    1    1    2    0    0  0.71615570318E-02 -0.20067997921E-01  0.27732932803E-01  0.34973246940E-01  0.00000000000E+00 0.  1.
       22    1    1    2    0    0 -0.71675518853E-02  0.20071769980E-01 -0.27492945558E-01  0.34786661318E-01  0.00000000000E+00 0. -1.
</event>
<event>
 5   0  0.1792268E+06  0.9118800E+02  0.7546771E-02  0.1180000E+00
      -11   -1    0    0    0    0  0.00000000000E+00  0.00000000000E+00  0.34996269501E-01  0.35000000000E-01  0.51099999109E-03 0.  1.
       11   -1    0    0    0    0 -0.00000000000E+00 -0.00000000000E+00 -0.34996269501E-01  0.35000000000E-01  0.51099999109E-03 0. -1.
       22    1    1    2    0    0 -0.97940399141E-02 -0.75319214177E-02  0.32733460749E-01  0.34987605101E-01  0.00000000000E+00 0.  1.
       22    1    1    2    0    0  0.97761014097E-02  0.75216321889E-02 -0.32743235674E-01  0.34989521173E-01  0.00000000000E+00 0. -1.
       22    1    1    2    0    0  0.17938504471E-04  0.10289228783E-04  0.97749247289E-05  0.22873725649E-04  0.00000000000E+00 0. -1.
</event>
<event>
 5   0  0.1792268E+06  0.9118800E+02  0.7546771E-02  0.1180000E+00
      -11   -1    0    0    0    0  0.00000000000E+00  0.00000000000E+00  0.34996269501E-01  0.35000000000E-01  0.51099999109E-03 0.  1.
       11   -1    0    0    0    0 -0.00000000000E+00 -0.00000000000E+00 -0.34996269501E-01  0.35000000000E-01  0.51099999109E-03 0.  1.
       22    1    1    2    0    0  0.21446937233E-11 -0.26855292533E-11 -0.35000414960E-01  0.34999998693E-01  0.00000000000E+00 0.  1.
       22    1    1    2    0    0  0.36199250948E-07 -0.45327753010E-07  0.64028199806E-06  0.64290436925E-06  0.00000000000E+00 0.  1.
       22    1    1    2    0    0 -0.36201395642E-07  0.45330438539E-07  0.34999774678E-01  0.34999358403E-01  0.00000000000E+00 0.  1.
</event>
<event>
 5   0  0.1792268E+06  0.9118800E+02  0.7546771E-02  0.1180000E+00
      -11   -1    0    0    0    0  0.00000000000E+00  0.00000000000E+00  0.34996269501E-01  0.35000000000E-01  0.51099999109E-03 0.  1.
       11   -1    0    0    0    0 -0.00000000000E+00 -0.00000000000E+00 -0.34996269501E-01  0.35000000000E-01  0.51099999109E-03 0. -1.
       22    1    1    2    0    0 -0.26877732507E-02  0.17803563747E-02 -0.34839174777E-01  0.34988024994E-01  0.00000000000E+00 0. -1.
       22    1    1    2    0    0  0.27447129327E-02 -0.18436058114E-02  0.34608814328E-01  0.34766397004E-01  0.00000000000E+00 0.  1.
       22    1    1    2    0    0 -0.56939682003E-04  0.63249436720E-04  0.23036044882E-03  0.24557800189E-03  0.00000000000E+00 0. -1.
</event>
<event>
 5   0  0.1792268E+06  0.9118800E+02  0.7546771E-02  0.1180000E+00
      -11   -1    0    0    0    0  0.00000000000E+00  0.00000000000E+00  0.34996269501E-01  0.35000000000E-01  0.51099999109E-03 0. -1.
       11   -1    0    0    0    0 -0.00000000000E+00 -0.00000000000E+00 -0.34996269501E-01  0.35000000000E-01  0.51099999109E-03 0.  1.
       22    1    1    2    0    0 -0.71415287029E-02 -0.21330888419E-03  0.34257987944E-01  0.34995094955E-01  0.00000000000E+00 0. -1.
       22    1    1    2    0    0 -0.27389308173E-06  0.12533268213E-06  0.49247401720E-05  0.49339427908E-05  0.00000000000E+00 0.  1.
       22    1    1    2    0    0  0.71418025960E-02  0.21318355151E-03 -0.34262912685E-01  0.34999971102E-01  0.00000000000E+00 0.  1.
</event>
<event>
 5   0  0.1792268E+06  0.9118800E+02  0.7546771E-02  0.1180000E+00
      -11   -1    0    0    0    0  0.00000000000E+00  0.00000000000E+00  0.34996269501E-01  0.35000000000E-01  0.51099999109E-03 0.  1.
       11   -1    0    0    0    0 -0.00000000000E+00 -0.00000000000E+00 -0.34996269501E-01  0.35000000000E-01  0.51099999109E-03 0. -1.
       22    1    1    2    0    0  0.30624749582E-07  0.14366748916E-06  0.34236881373E-06  0.37255150965E-06  0.00000000000E+00 0. -1.
       22    1    1    2    0    0 -0.78443993207E-03 -0.82537809002E-03  0.34981116790E-01  0.34999644667E-01  0.00000000000E+00 0.  1.
       22    1    1    2    0    0  0.78440930732E-03  0.82523442253E-03 -0.34981459158E-01  0.34999982781E-01  0.00000000000E+00 0. -1.
</event>
<event>
 5   0  0.1792268E+06  0.9118800E+02  0.7546771E-02  0.1180000E+00
      -11   -1    0    0    0    0  0.00000000000E+00  0.00000000000E+00  0.34996269501E-01  0.35000000000E-01  0.51099999109E-03 0.  1.
       11   -1    0    0    0    0 -0.00000000000E+00 -0.00000000000E+00 -0.34996269501E-01  0.35000000000E-01  0.51099999109E-03 0. -1.
       22    1    1    2    0    0 -0.32380378559E-02  0.17806739758E-02  0.34804346155E-01  0.34999974289E-01  0.00000000000E+00 0.  1.
       22    1    1    2    0    0  0.16291013423E-07 -0.18585046168E-07  0.21340215216E-07  0.32652807611E-07  0.00000000000E+00 0. -1.
       22    1    1    2    0    0  0.32380215649E-02 -0.17806553908E-02 -0.34804367496E-01  0.34999993058E-01  0.00000000000E+00 0. -1.
</event>
<event>
 5   0  0.1792268E+06  0.9118800E+02  0.7546771E-02  0.1180000E+00
      -11   -1    0    0    0    0  0.00000000000E+00  0.00000000000E+00  0.34996269501E-01  0.35000000000E-01  0.51099999109E-03 0.  1.
       11   -1    0    0    0    0 -0.00000000000E+00 -0.00000000000E+00 -0.34996269501E-01  0.35000000000E-01  0.51099999109E-03 0. -1.
       22    1    1    2    0    0 -0.17486428025E-05  0.21174566282E-05  0.20649338629E-03  0.20651164606E-03  0.00000000000E+00 0. -1.
       22    1    1    2    0    0 -0.11501727946E-02  0.27003430773E-02  0.34669734462E-01  0.34793752857E-01  0.00000000000E+00 0.  1.
       22    1    1    2    0    0  0.11519214374E-02 -0.27024605339E-02 -0.34876227848E-01  0.34999735497E-01  0.00000000000E+00 0. -1.
</event>
<event>
 5   0  0.1792268E+06  0.9118800E+02  0.7546771E-02  0.1180000E+00
      -11   -1    0    0    0    0  0.00000000000E+00  0.00000000000E+00  0.34996269501E-01  0.35000000000E-01  0.51099999109E-03 0.  1.
       11   -1    0    0    0    0 -0.00000000000E+00 -0.00000000000E+00 -0.34996269501E-01  0.35000000000E-01  0.51099999109E-03 0. -1.
       22    1    1    2    0    0 -0.16608268288E-04 -0.39598747332E-04  0.68844769040E-04  0.81138755167E-04  0.00000000000E+00 0. -1.
       22    1    1    2    0    0 -0.27907659900E-02  0.19187239197E-02  0.34760987965E-01  0.34925580319E-01  0.00000000000E+00 0.  1.
       22    1    1    2    0    0  0.28073742583E-02 -0.18791251724E-02 -0.34829832734E-01  0.34993280926E-01  0.00000000000E+00 0. -1.
</event>
<event>
 5   0  0.1792268E+06  0.9118800E+02  0.7546771E-02  0.1180000E+00
      -11   -1    0    0    0    0  0.00000000000E+00  0.00000000000E+00  0.34996269501E-01  0.35000000000E-01  0.51099999109E-03 0. -1.
       11   -1    0    0    0    0 -0.00000000000E+00 -0.00000000000E+00 -0.34996269501E-01  0.35000000000E-01  0.51099999109E-03 0.  1.
       22    1    1    2    0    0  0.59268650189E-02  0.11367563196E-01 -0.32416162318E-01  0.34859099263E-01  0.00000000000E+00 0.  1.
       22    1    1    2    0    0  0.23354252812E-03 -0.92329267299E-04 -0.20771391921E-04  0.25198860443E-03  0.00000000000E+00 0. -1.
       22    1    1    2    0    0 -0.61604075470E-02 -0.11275233929E-01  0.32436933710E-01  0.34888912133E-01  0.00000000000E+00 0. -1.
</event>
<event>
 5   0  0.1792268E+06  0.9118800E+02  0.7546771E-02  0.1180000E+00
      -11   -1    0    0    0    0  0.00000000000E+00  0.00000000000E+00  0.34996269501E-01  0.35000000000E-01  0.51099999109E-03 0.  1.
       11   -1    0    0    0    0 -0.00000000000E+00 -0.00000000000E+00 -0.34996269501E-01  0.35000000000E-01  0.51099999109E-03 0. -1.
       22    1    1    2    0    0  0.35636465578E-02  0.27411247348E-02 -0.34647255732E-01  0.34937739929E-01  0.00000000000E+00 0. -1.
       22    1    1    2    0    0  0.63715346689E-04  0.19225357664E-03  0.15260806431E-03  0.25359476420E-03  0.00000000000E+00 0. -1.
       22    1    1    2    0    0 -0.36273619045E-02 -0.29333783114E-02  0.34494647668E-01  0.34808665307E-01  0.00000000000E+00 0.  1.
</event>
<event>
 5   0  0.1792268E+06  0.9118800E+02  0.7546771E-02  0.1180000E+00
      -11   -1    0    0    0    0  0.00000000000E+00  0.00000000000E+00  0.34996269501E-01  0.35000000000E-01  0.51099999109E-03 0. -1.
       11   -1    0    0    0    0 -0.00000000000E+00 -0.00000000000E+00 -0.34996269501E-01  0.35000000000E-01  0.51099999109E-03 0.  1.
       22    1    1    2    0    0  0.49914772333E-07 -0.41969512008E-07 -0.63178102274E-08  0.65519761609E-07  0.00000000000E+00 0.  1.
       22    1    1    2    0    0  0.42545590405E-03 -0.82806699920E-03  0.34987585858E-01  0.34999969598E-01  0.00000000000E+00 0. -1.
       22    1    1    2    0    0 -0.42550581882E-03  0.82810896871E-03 -0.34987579540E-01  0.34999964882E-01  0.00000000000E+00 0.  1.
</event>
<event>
 5   0  0.1792268E+06  0.9118800E+02  0.7546771E-02  0.1180000E+00
      -11   -1    0    0    0    0  0.00000000000E+00  0.00000000000E+00  0.34996269501E-01  0.35000000000E-01  0.51099999109E-03 0. -1.
       11   -1    0    0    0    0 -0.00000000000E+00 -0.00000000000E+00 -0.34996269501E-01  0.35000000000E-01  0.51099999109E-03 0.  1.
       22    1    1    2    0    0  0.77362672964E-03  0.15463745144E-02  0.34946503308E-01  0.34989253578E-01  0.00000000000E+00 0. -1.
       22    1    1    2    0    0  0.94166466395E-04 -0.22091347067E-03 -0.14833687469E-01  0.14835631230E-01  0.00000000000E+00 0.  1.
       22    1    1    2    0    0 -0.86779319603E-03 -0.13254610437E-02 -0.20112815840E-01  0.20175115192E-01  0.00000000000E+00 0.  1.
</event>
<event>
 5   0  0.1792268E+06  0.9118800E+02  0.7546771E-02  0.1180000E+00
      -11   -1    0    0    0    0  0.00000000000E+00  0.00000000000E+00  0.34996269501E-01  0.35000000000E-01  0.51099999109E-03 0.  1.
       11   -1    0    0    0    0 -0.00000000000E+00 -0.00000000000E+00 -0.34996269501E-01  0.35000000000E-01  0.51099999109E-03 0. -1.
       22    1    1    2    0    0 -0.12904803494E-01 -0.20325039760E-01 -0.24887196552E-01  0.34626777884E-01  0.00000000000E+00 0.  1.
       22    1    1    2    0    0  0.13093201873E-01  0.20338368015E-01  0.25248682089E-01  0.34965369954E-01  0.00000000000E+00 0. -1.
       22    1    1    2    0    0 -0.18839837981E-03 -0.13328254757E-04 -0.36148553740E-03  0.40785216150E-03  0.00000000000E+00 0. -1.
</event>
<event>
 5   0  0.1792268E+06  0.9118800E+02  0.7546771E-02  0.1180000E+00
      -11   -1    0    0    0    0  0.00000000000E+00  0.00000000000E+00  0.34996269501E-01  0.35000000000E-01  0.51099999109E-03 0.  1.
       11   -1    0    0    0    0 -0.00000000000E+00 -0.00000000000E+00 -0.34996269501E-01  0.35000000000E-01  0.51099999109E-03 0. -1.
       22    1    1    2    0    0 -0.33989716284E-02  0.11843023270E-01  0.32748339988E-01  0.34989483853E-01  0.00000000000E+00 0.  1.
       22    1    1    2    0    0  0.15680428538E-05  0.23460619032E-05  0.10337149619E-04  0.10715382732E-04  0.00000000000E+00 0. -1.
       22    1    1    2    0    0  0.33974035856E-02 -0.11845369332E-01 -0.32758677138E-01  0.34999800764E-01  0.00000000000E+00 0. -1.
</event>
<event>
 5   0  0.1792268E+06  0.9118800E+02  0.7546771E-02  0.1180000E+00
      -11   -1    0    0    0    0  0.00000000000E+00  0.00000000000E+00  0.34996269501E-01  0.35000000000E-01  0.51099999109E-03 0. -1.
       11   -1    0    0    0    0 -0.00000000000E+00 -0.00000000000E+00 -0.34996269501E-01  0.35000000000E-01  0.51099999109E-03 0.  1.
       22    1    1    2    0    0 -0.22393522459E-02  0.37235572931E-02 -0.34693811836E-01  0.34964841728E-01  0.00000000000E+00 0.  1.
       22    1    1    2    0    0 -0.33337712448E-03  0.15499724045E-04  0.28662711134E-02  0.28856352237E-02  0.00000000000E+00 0. -1.
       22    1    1    2    0    0  0.25727293704E-02 -0.37390570172E-02  0.31827540722E-01  0.32149523048E-01  0.00000000000E+00 0. -1.
</event>
<event>
 5   0  0.1792268E+06  0.9118800E+02  0.7546771E-02  0.1180000E+00
      -11   -1    0    0    0    0  0.00000000000E+00  0.00000000000E+00  0.34996269501E-01  0.35000000000E-01  0.51099999109E-03 0.  1.
       11   -1    0    0    0    0 -0.00000000000E+00 -0.00000000000E+00 -0.34996269501E-01  0.35000000000E-01  0.51099999109E-03 0. -1.
       22    1    1    2    0    0  0.43232303111E-08 -0.14091930525E-08  0.24640922084E-06  0.24645117216E-06  0.00000000000E+00 0. -1.
       22    1    1    2    0    0 -0.60823937503E-02  0.98992638544E-02 -0.33015278450E-01  0.34999993567E-01  0.00000000000E+00 0. -1.
       22    1    1    2    0    0  0.60823894271E-02 -0.98992624452E-02  0.33015032041E-01  0.34999759981E-01  0.00000000000E+00 0.  1.
</event>
<event>
 5   0  0.1792268E+06  0.9118800E+02  0.7546771E-02  0.1180000E+00
      -11   -1    0    0    0    0  0.00000000000E+00  0.00000000000E+00  0.34996269501E-01  0.35000000000E-01  0.51099999109E-03 0.  1.
       11   -1    0    0    0    0 -0.00000000000E+00 -0.00000000000E+00 -0.34996269501E-01  0.35000000000E-01  0.51099999109E-03 0. -1.
       22    1    1    2    0    0  0.81339295632E-09  0.10221957151E-09  0.52160019058E-07  0.52166460922E-07  0.00000000000E+00 0.  1.
       22    1    1    2    0    0  0.93629563877E-02 -0.12727264825E-01 -0.31230619184E-01  0.34999997098E-01  0.00000000000E+00 0. -1.
       22    1    1    2    0    0 -0.93629572011E-02  0.12727264723E-01  0.31230567024E-01  0.34999950736E-01  0.00000000000E+00 0.  1.
</event>
<event>
 5   0  0.1792268E+06  0.9118800E+02  0.7546771E-02  0.1180000E+00
      -11   -1    0    0    0    0  0.00000000000E+00  0.00000000000E+00  0.34996269501E-01  0.35000000000E-01  0.51099999109E-03 0.  1.
       11   -1    0    0    0    0 -0.00000000000E+00 -0.00000000000E+00 -0.34996269501E-01  0.35000000000E-01  0.51099999109E-03 0. -1.
       22    1    1    2    0    0 -0.51165988996E-05  0.30229791575E-04 -0.15067555439E-05  0.30696745679E-04  0.00000000000E+00 0. -1.
       22    1    1    2    0    0  0.12068198055E-01  0.18522147468E-02 -0.32784289425E-01  0.34984021165E-01  0.00000000000E+00 0. -1.
       22    1    1    2    0    0 -0.12063081456E-01 -0.18824445383E-02  0.32785796181E-01  0.34985282089E-01  0.00000000000E+00 0.  1.
</event>
<event>
 5   0  0.1792268E+06  0.9118800E+02  0.7546771E-02  0.1180000E+00
      -11   -1    0    0    0    0  0.00000000000E+00  0.00000000000E+00  0.34996269501E-01  0.35000000000E-01  0.51099999109E-03 0.  1.
       11   -1    0    0    0    0 -0.00000000000E+00 -0.00000000000E+00 -0.34996269501E-01  0.35000000000E-01  0.51099999109E-03 0. -1.
       22    1    1    2    0    0  0.11633686233E-05 -0.72035418704E-06  0.38199694631E-04  0.38224193995E-04  0.00000000000E+00 0. -1.
       22    1    1    2    0    0 -0.25237272115E-02  0.37684111268E-02  0.34666603800E-01  0.34962029982E-01  0.00000000000E+00 0.  1.
       22    1    1    2    0    0  0.25225638429E-02 -0.37676907726E-02 -0.34704803495E-01  0.34999745824E-01  0.00000000000E+00 0. -1.
</event>
<event>
 5   0  0.1792268E+06  0.9118800E+02  0.7546771E-02  0.1180000E+00
      -11   -1    0    0    0    0  0.00000000000E+00  0.00000000000E+00  0.34996269501E-01  0.35000000000E-01  0.51099999109E-03 0. -1.
       11   -1    0    0    0    0 -0.00000000000E+00 -0.00000000000E+00 -0.34996269501E-01  0.35000000000E-01  0.51099999109E-03 0.  1.
       22    1    1    2    0    0 -0.12041846608E-02 -0.15022511525E-02 -0.34946859673E-01  0.34999854574E-01  0.00000000000E+00 0.  1.
       22    1    1    2    0    0  0.47482519426E-05 -0.32250091307E-07  0.27001491617E-03  0.27005666422E-03  0.00000000000E+00 0.  1.
       22    1    1    2    0    0  0.11994364088E-02  0.15022834026E-02  0.34676844757E-01  0.34730088762E-01  0.00000000000E+00 0. -1.
</event>
<event>
 5   0  0.1792268E+06  0.9118800E+02  0.7546771E-02  0.1180000E+00
      -11   -1    0    0    0    0  0.00000000000E+00  0.00000000000E+00  0.34996269501E-01  0.35000000000E-01  0.51099999109E-03 0. -1.
       11   -1    0    0    0    0 -0.00000000000E+00 -0.00000000000E+00 -0.34996269501E-01  0.35000000000E-01  0.51099999109E-03 0.  1.
       22    1    1    2    0    0 -0.51495492517E-02  0.23557200887E-02  0.29125290862E-01  0.29670689956E-01  0.00000000000E+00 0. -1.
       22    1    1    2    0    0  0.24374760049E-03  0.44731604703E-04  0.53844041952E-02  0.53901041128E-02  0.00000000000E+00 0. -1.
       22    1    1    2    0    0  0.49058016513E-02 -0.24004516934E-02 -0.34509695057E-01  0.34939205932E-01  0.00000000000E+00 0.  1.
</event>
<event>
 5   0  0.1792268E+06  0.9118800E+02  0.7546771E-02  0.1180000E+00
      -11   -1    0    0    0    0  0.00000000000E+00  0.00000000000E+00  0.34996269501E-01  0.35000000000E-01  0.51099999109E-03 0.  1.
       11   -1    0    0    0    0 -0.00000000000E+00 -0.00000000000E+00 -0.34996269501E-01  0.35000000000E-01  0.51099999109E-03 0. -1.
       22    1    1    2    0    0  0.13713421576E-01  0.21545439134E-01 -0.23847911411E-01  0.34942620930E-01  0.00000000000E+00 0. -1.
       22    1    1    2    0    0 -0.13626337368E-01 -0.21453866479E-01  0.23928675453E-01  0.34907405603E-01  0.00000000000E+00 0.  1.
       22    1    1    2    0    0 -0.87084207858E-04 -0.91572654655E-04 -0.80764041802E-04  0.14997346694E-03  0.00000000000E+00 0. -1.
</event>
<event>
 5   0  0.1792268E+06  0.9118800E+02  0.7546771E-02  0.1180000E+00
      -11   -1    0    0    0    0  0.00000000000E+00  0.00000000000E+00  0.34996269501E-01  0.35000000000E-01  0.51099999109E-03 0. -1.
       11   -1    0    0    0    0 -0.00000000000E+00 -0.00000000000E+00 -0.34996269501E-01  0.35000000000E-01  0.51099999109E-03 0.  1.
       22    1    1    2    0    0 -0.17460651240E-06 -0.13072965636E-06  0.48305021655E-05  0.48354243710E-05  0.00000000000E+00 0. -1.
       22    1    1    2    0    0 -0.15324289345E-02 -0.19765002756E-02 -0.34910513855E-01  0.34999983849E-01  0.00000000000E+00 0.  1.
       22    1    1    2    0    0  0.15326035410E-02  0.19766310052E-02  0.34905683353E-01  0.34995180727E-01  0.00000000000E+00 0. -1.
</event>
<event>
 5   0  0.1792268E+06  0.9118800E+02  0.7546771E-02  0.1180000E+00
      -11   -1    0    0    0    0  0.00000000000E+00  0.00000000000E+00  0.34996269501E-01  0.35000000000E-01  0.51099999109E-03 0.  1.
       11   -1    0    0    0    0 -0.00000000000E+00 -0.00000000000E+00 -0.34996269501E-01  0.35000000000E-01  0.51099999109E-03 0. -1.
       22    1    1    2    0    0 -0.52668544401E-03  0.24186302071E-03  0.11425187710E-02  0.12811106197E-02  0.00000000000E+00 0.  1.
       22    1    1    2    0    0 -0.38950152967E-02 -0.37502557456E-02 -0.34482819472E-01  0.34904160226E-01  0.00000000000E+00 0. -1.
       22    1    1    2    0    0  0.44217007407E-02  0.35083927249E-02  0.33340300701E-01  0.33814729155E-01  0.00000000000E+00 0.  1.
</event>
<event>
 5   0  0.1792268E+06  0.9118800E+02  0.7546771E-02  0.1180000E+00
      -11   -1    0    0    0    0  0.00000000000E+00  0.00000000000E+00  0.34996269501E-01  0.35000000000E-01  0.51099999109E-03 0. -1.
       11   -1    0    0    0    0 -0.00000000000E+00 -0.00000000000E+00 -0.34996269501E-01  0.35000000000E-01  0.51099999109E-03 0.  1.
       22    1    1    2    0    0  0.10920582107E-05  0.31127664705E-05  0.52163404393E-04  0.52267606259E-04  0.00000000000E+00 0.  1.
       22    1    1    2    0    0  0.69716715204E-02  0.36321557333E-02  0.34052586291E-01  0.34948181529E-01  0.00000000000E+00 0. -1.
       22    1    1    2    0    0 -0.69727635786E-02 -0.36352684998E-02 -0.34104749695E-01  0.34999550865E-01  0.00000000000E+00 0.  1.
</event>
<event>
 5   0  0.1792268E+06  0.9118800E+02  0.7546771E-02  0.1180000E+00
      -11   -1    0    0    0    0  0.00000000000E+00  0.00000000000E+00  0.34996269501E-01  0.35000000000E-01  0.51099999109E-03 0.  1.
       11   -1    0    0    0    0 -0.00000000000E+00 -0.00000000000E+00 -0.34996269501E-01  0.35000000000E-01  0.51099999109E-03 0. -1.
       22    1    1    2    0    0  0.15737198024E-02  0.13758126098E-02  0.34937405612E-01  0.34999882361E-01  0.00000000000E+00 0.  1.
       22    1    1    2    0    0  0.30334940331E-07 -0.11066702944E-07  0.11505488515E-06  0.11950023898E-06  0.00000000000E+00 0.  1.
       22    1    1    2    0    0 -0.15737501374E-02 -0.13758015431E-02 -0.34937520667E-01  0.34999998139E-01  0.00000000000E+00 0. -1.
</event>
<event>
 5   0  0.1792268E+06  0.9118800E+02  0.7546771E-02  0.1180000E+00
      -11   -1    0    0    0    0  0.00000000000E+00  0.00000000000E+00  0.34996269501E-01  0.35000000000E-01  0.51099999109E-03 0. -1.
       11   -1    0    0    0    0 -0.00000000000E+00 -0.00000000000E+00 -0.34996269501E-01  0.35000000000E-01  0.51099999109E-03 0.  1.
       22    1    1    2    0    0 -0.10707688012E-02  0.27437960026E-02 -0.34823907327E-01  0.34948240068E-01  0.00000000000E+00 0.  1.
       22    1    1    2    0    0  0.75367492178E-03  0.35914239260E-03  0.56036629926E-02  0.56655139291E-02  0.00000000000E+00 0. -1.
       22    1    1    2    0    0  0.31709387944E-03 -0.31029383952E-02  0.29220244334E-01  0.29386246003E-01  0.00000000000E+00 0. -1.
</event>
<event>
 5   0  0.1792268E+06  0.9118800E+02  0.7546771E-02  0.1180000E+00
      -11   -1    0    0    0    0  0.00000000000E+00  0.00000000000E+00  0.34996269501E-01  0.35000000000E-01  0.51099999109E-03 0.  1.
       11   -1    0    0    0    0 -0.00000000000E+00 -0.00000000000E+00 -0.34996269501E-01  0.35000000000E-01  0.51099999109E-03 0. -1.
       22    1    1    2    0    0 -0.78945156969E-02 -0.58282074280E-02 -0.33596156622E-01  0.34999901709E-01  0.00000000000E+00 0. -1.
       22    1    1    2    0    0  0.78946690300E-02  0.58281385838E-02  0.33591915298E-01  0.34995853638E-01  0.00000000000E+00 0.  1.
       22    1    1    2    0    0 -0.15333304925E-06  0.68844232334E-07  0.42413233191E-05  0.42446524062E-05  0.00000000000E+00 0.  1.
</event>
<event>
 5   0  0.1792268E+06  0.9118800E+02  0.7546771E-02  0.1180000E+00
      -11   -1    0    0    0    0  0.00000000000E+00  0.00000000000E+00  0.34996269501E-01  0.35000000000E-01  0.51099999109E-03 0.  1.
       11   -1    0    0    0    0 -0.00000000000E+00 -0.00000000000E+00 -0.34996269501E-01  0.35000000000E-01  0.51099999109E-03 0. -1.
       22    1    1    2    0    0  0.68839949592E-02 -0.18414378688E-02 -0.34266888240E-01  0.34999998709E-01  0.00000000000E+00 0. -1.
       22    1    1    2    0    0 -0.68839982539E-02  0.18414383834E-02  0.34266886187E-01  0.34999997375E-01  0.00000000000E+00 0.  1.
       22    1    1    2    0    0  0.32946294697E-08 -0.51460162835E-09  0.20523249580E-08  0.39155377551E-08  0.00000000000E+00 0.  1.
</event>
<event>
 5   0  0.1792268E+06  0.9118800E+02  0.7546771E-02  0.1180000E+00
      -11   -1    0    0    0    0  0.00000000000E+00  0.00000000000E+00  0.34996269501E-01  0.35000000000E-01  0.51099999109E-03 0. -1.
       11   -1    0    0    0    0 -0.00000000000E+00 -0.00000000000E+00 -0.34996269501E-01  0.35000000000E-01  0.51099999109E-03 0.  1.
       22    1    1    2    0    0 -0.32525676279E-01 -0.12859006214E-01  0.11067820565E-02  0.34992836764E-01  0.00000000000E+00 0. -1.
       22    1    1    2    0    0  0.32524460039E-01  0.12859538981E-01 -0.11215144328E-02  0.34992371144E-01  0.00000000000E+00 0.  1.
       22    1    1    2    0    0  0.12162399453E-05 -0.53276670962E-06  0.14732376247E-04  0.14792092139E-04  0.00000000000E+00 0. -1.
</event>
<event>
 5   0  0.1792268E+06  0.9118800E+02  0.7546771E-02  0.1180000E+00
      -11   -1    0    0    0    0  0.00000000000E+00  0.00000000000E+00  0.34996269501E-01  0.35000000000E-01  0.51099999109E-03 0. -1.
       11   -1    0    0    0    0 -0.00000000000E+00 -0.00000000000E+00 -0.34996269501E-01  0.35000000000E-01  0.51099999109E-03 0.  1.
       22    1    1    2    0    0  0.11263595643E-01  0.41003985721E-02  0.31772560671E-01  0.33958466792E-01  0.00000000000E+00 0. -1.
       22    1    1    2    0    0  0.15744653987E-02 -0.10469143347E-03 -0.12164332151E-01  0.12266249560E-01  0.00000000000E+00 0.  1.
       22    1    1    2    0    0 -0.12838061042E-01 -0.39957071387E-02 -0.19608228520E-01  0.23775283648E-01  0.00000000000E+00 0.  1.
</event>
<event>
 5   0  0.1792268E+06  0.9118800E+02  0.7546771E-02  0.1180000E+00
      -11   -1    0    0    0    0  0.00000000000E+00  0.00000000000E+00  0.34996269501E-01  0.35000000000E-01  0.51099999109E-03 0. -1.
       11   -1    0    0    0    0 -0.00000000000E+00 -0.00000000000E+00 -0.34996269501E-01  0.35000000000E-01  0.51099999109E-03 0. -1.
       22    1    1    2    0    0  0.20186983001E-08  0.32905012308E-10  0.11010094611E-08  0.22996624535E-08  0.00000000000E+00 0. -1.
       22    1    1    2    0    0 -0.55333123851E-03 -0.82331835198E-03  0.34985937940E-01  0.34999998316E-01  0.00000000000E+00 0. -1.
       22    1    1    2    0    0  0.55332921981E-03  0.82331831907E-03 -0.34985939041E-01  0.34999999384E-01  0.00000000000E+00 0. -1.
</event>
<event>
 5   0  0.1792268E+06  0.9118800E+02  0.7546771E-02  0.1180000E+00
      -11   -1    0    0    0    0  0.00000000000E+00  0.00000000000E+00  0.34996269501E-01  0.35000000000E-01  0.51099999109E-03 0. -1.
       11   -1    0    0    0    0 -0.00000000000E+00 -0.00000000000E+00 -0.34996269501E-01  0.35000000000E-01  0.51099999109E-03 0.  1.
       22    1    1    2    0    0  0.12427729428E-02 -0.24618873584E-03 -0.34079376503E-01  0.34102917710E-01  0.00000000000E+00 0.  1.
       22    1    1    2    0    0 -0.42331410788E-04  0.15587128677E-03 -0.89123696638E-03  0.90575445714E-03  0.00000000000E+00 0. -1.
       22    1    1    2    0    0 -0.12004415320E-02  0.90317449073E-04  0.34970613469E-01  0.34991327833E-01  0.00000000000E+00 0. -1.
</event>
<event>
 5   0  0.1792268E+06  0.9118800E+02  0.7546771E-02  0.1180000E+00
      -11   -1    0    0    0    0  0.00000000000E+00  0.00000000000E+00  0.34996269501E-01  0.35000000000E-01  0.51099999109E-03 0. -1.
       11   -1    0    0    0    0 -0.00000000000E+00 -0.00000000000E+00 -0.34996269501E-01  0.35000000000E-01  0.51099999109E-03 0.  1.
       22    1    1    2    0    0  0.35964703479E-02  0.25483413755E-01 -0.23720476220E-01  0.34999999538E-01  0.00000000000E+00 0.  1.
       22    1    1    2    0    0 -0.35964696505E-02 -0.25483413259E-01  0.23720472298E-01  0.34999996447E-01  0.00000000000E+00 0. -1.
       22    1    1    2    0    0 -0.69738677700E-09 -0.49575603362E-09  0.39222028504E-08  0.40144485999E-08  0.00000000000E+00 0.  1.
</event>
<event>
 5   0  0.1792268E+06  0.9118800E+02  0.7546771E-02  0.1180000E+00
      -11   -1    0    0    0    0  0.00000000000E+00  0.00000000000E+00  0.34996269501E-01  0.35000000000E-01  0.51099999109E-03 0. -1.
       11   -1    0    0    0    0 -0.00000000000E+00 -0.00000000000E+00 -0.34996269501E-01  0.35000000000E-01  0.51099999109E-03 0.  1.
       22    1    1    2    0    0  0.67483186045E-02 -0.26058196211E-02 -0.34243991166E-01  0.34999729011E-01  0.00000000000E+00 0.  1.
       22    1    1    2    0    0 -0.25298964450E-07 -0.94564828317E-06  0.74160270981E-06  0.12020254957E-05  0.00000000000E+00 0.  1.
       22    1    1    2    0    0 -0.67482933055E-02  0.26067652694E-02  0.34243249563E-01  0.34999068964E-01  0.00000000000E+00 0. -1.
</event>
<event>
 5   0  0.1792268E+06  0.9118800E+02  0.7546771E-02  0.1180000E+00
      -11   -1    0    0    0    0  0.00000000000E+00  0.00000000000E+00  0.34996269501E-01  0.35000000000E-01  0.51099999109E-03 0. -1.
       11   -1    0    0    0    0 -0.00000000000E+00 -0.00000000000E+00 -0.34996269501E-01  0.35000000000E-01  0.51099999109E-03 0.  1.
       22    1    1    2    0    0  0.30170565388E-04 -0.12707484815E-02  0.34976850020E-01  0.34999939275E-01  0.00000000000E+00 0. -1.
       22    1    1    2    0    0  0.82146829575E-09  0.17238724929E-08  0.60760822732E-07  0.60790822709E-07  0.00000000000E+00 0.  1.
       22    1    1    2    0    0 -0.30171386856E-04  0.12707467577E-02 -0.34976910780E-01  0.34999999934E-01  0.00000000000E+00 0.  1.
</event>
<event>
 5   0  0.1792268E+06  0.9118800E+02  0.7546771E-02  0.1180000E+00
      -11   -1    0    0    0    0  0.00000000000E+00  0.00000000000E+00  0.34996269501E-01  0.35000000000E-01  0.51099999109E-03 0. -1.
       11   -1    0    0    0    0 -0.00000000000E+00 -0.00000000000E+00 -0.34996269501E-01  0.35000000000E-01  0.51099999109E-03 0.  1.
       22    1    1    2    0    0 -0.14896545841E-02 -0.16949080310E-03 -0.34920433153E-01  0.34952602900E-01  0.00000000000E+00 0.  1.
       22    1    1    2    0    0 -0.20076509404E-03 -0.33240419865E-03  0.88661616754E-03  0.96792944103E-03  0.00000000000E+00 0. -1.
       22    1    1    2    0    0  0.16904196781E-02  0.50189500174E-03  0.34033816986E-01  0.34079467659E-01  0.00000000000E+00 0. -1.
</event>
<event>
 5   0  0.1792268E+06  0.9118800E+02  0.7546771E-02  0.1180000E+00
      -11   -1    0    0    0    0  0.00000000000E+00  0.00000000000E+00  0.34996269501E-01  0.35000000000E-01  0.51099999109E-03 0. -1.
       11   -1    0    0    0    0 -0.00000000000E+00 -0.00000000000E+00 -0.34996269501E-01  0.35000000000E-01  0.51099999109E-03 0.  1.
       22    1    1    2    0    0 -0.93290395998E-02 -0.13411130604E-02  0.33325497967E-01  0.34632620156E-01  0.00000000000E+00 0. -1.
       22    1    1    2    0    0  0.93439113365E-02  0.13390855246E-02 -0.33697732645E-01  0.34994842685E-01  0.00000000000E+00 0.  1.
       22    1    1    2    0    0 -0.14871736711E-04  0.20275357461E-05  0.37223467796E-03  0.37253715913E-03  0.00000000000E+00 0.  1.
</event>
<event>
 5   0  0.1792268E+06  0.9118800E+02  0.7546771E-02  0.1180000E+00
      -11   -1    0    0    0    0  0.00000000000E+00  0.00000000000E+00  0.34996269501E-01  0.35000000000E-01  0.51099999109E-03 0. -1.
       11   -1    0    0    0    0 -0.00000000000E+00 -0.00000000000E+00 -0.34996269501E-01  0.35000000000E-01  0.51099999109E-03 0.  1.
       22    1    1    2    0    0 -0.13178836852E-01  0.19307152896E-01  0.26024824477E-01  0.34981986547E-01  0.00000000000E+00 0. -1.
       22    1    1    2    0    0  0.13178674155E-01 -0.19306842358E-01 -0.26045612795E-01  0.34997222179E-01  0.00000000000E+00 0.  1.
       22    1    1    2    0    0  0.16269609828E-06 -0.31053718152E-06  0.20788318193E-04  0.20791274051E-04  0.00000000000E+00 0.  1.
</event>
<event>
 5   0  0.1792268E+06  0.9118800E+02  0.7546771E-02  0.1180000E+00
      -11   -1    0    0    0    0  0.00000000000E+00  0.00000000000E+00  0.34996269501E-01  0.35000000000E-01  0.51099999109E-03 0. -1.
       11   -1    0    0    0    0 -0.00000000000E+00 -0.00000000000E+00 -0.34996269501E-01  0.35000000000E-01  0.51099999109E-03 0.  1.
       22    1    1    2    0    0 -0.32193199542E-02  0.12666383291E-01 -0.32467945211E-01  0.34999553610E-01  0.00000000000E+00 0.  1.
       22    1    1    2    0    0  0.14682479005E-05  0.10039508423E-05  0.42962800547E-05  0.46499130636E-05  0.00000000000E+00 0.  1.
       22    1    1    2    0    0  0.32178517063E-02 -0.12667387242E-01  0.32463648931E-01  0.34995796477E-01  0.00000000000E+00 0. -1.
</event>
<event>
 5   0  0.1792268E+06  0.9118800E+02  0.7546771E-02  0.1180000E+00
      -11   -1    0    0    0    0  0.00000000000E+00  0.00000000000E+00  0.34996269501E-01  0.35000000000E-01  0.51099999109E-03 0. -1.
       11   -1    0    0    0    0 -0.00000000000E+00 -0.00000000000E+00 -0.34996269501E-01  0.35000000000E-01  0.51099999109E-03 0.  1.
       22    1    1    2    0    0 -0.11079446350E-03  0.41464242400E-04 -0.16134858722E-03  0.20007014554E-03  0.00000000000E+00 0. -1.
       22    1    1    2    0    0  0.20500034963E-02 -0.34026842889E-02 -0.34597663517E-01  0.34824978041E-01  0.00000000000E+00 0.  1.
       22    1    1    2    0    0 -0.19392090328E-02  0.33612200465E-02  0.34759012104E-01  0.34974951813E-01  0.00000000000E+00 0. -1.
</event>
<event>
 5   0  0.1792268E+06  0.9118800E+02  0.7546771E-02  0.1180000E+00
      -11   -1    0    0    0    0  0.00000000000E+00  0.00000000000E+00  0.34996269501E-01  0.35000000000E-01  0.51099999109E-03 0. -1.
       11   -1    0    0    0    0 -0.00000000000E+00 -0.00000000000E+00 -0.34996269501E-01  0.35000000000E-01  0.51099999109E-03 0.  1.
       22    1    1    2    0    0 -0.14377548256E-01  0.13154670652E-01 -0.29073015265E-01  0.34999992434E-01  0.00000000000E+00 0.  1.
       22    1    1    2    0    0  0.14377523359E-01 -0.13154633619E-01  0.29072811898E-01  0.34999799360E-01  0.00000000000E+00 0. -1.
       22    1    1    2    0    0  0.24897125721E-07 -0.37032590639E-07  0.20336772356E-06  0.20820593322E-06  0.00000000000E+00 0. -1.
</event>
<event>
 5   0  0.1792268E+06  0.9118800E+02  0.7546771E-02  0.1180000E+00
      -11   -1    0    0    0    0  0.00000000000E+00  0.00000000000E+00  0.34996269501E-01  0.35000000000E-01  0.51099999109E-03 0. -1.
       11   -1    0    0    0    0 -0.00000000000E+00 -0.00000000000E+00 -0.34996269501E-01  0.35000000000E-01  0.51099999109E-03 0.  1.
       22    1    1    2    0    0 -0.37398658429E-02 -0.10398225821E-01  0.33082852138E-01  0.34879575719E-01  0.00000000000E+00 0. -1.
       22    1    1    2    0    0  0.37861225606E-02  0.10459298025E-01 -0.33181030306E-01  0.34995891350E-01  0.00000000000E+00 0.  1.
       22    1    1    2    0    0 -0.46256717653E-04 -0.61072203993E-04  0.98178167918E-04  0.12453293012E-03  0.00000000000E+00 0.  1.
</event>
<event>
 5   0  0.1792268E+06  0.9118800E+02  0.7546771E-02  0.1180000E+00
      -11   -1    0    0    0    0  0.00000000000E+00  0.00000000000E+00  0.34996269501E-01  0.35000000000E-01  0.51099999109E-03 0. -1.
       11   -1    0    0    0    0 -0.00000000000E+00 -0.00000000000E+00 -0.34996269501E-01  0.35000000000E-01  0.51099999109E-03 0.  1.
       22    1    1    2    0    0 -0.14871155509E-02 -0.13538878709E-02  0.34919596350E-01  0.34977460375E-01  0.00000000000E+00 0. -1.
       22    1    1    2    0    0 -0.18201189589E-03  0.75274309730E-03 -0.61963868517E-02  0.62445945038E-02  0.00000000000E+00 0.  1.
       22    1    1    2    0    0  0.16691274468E-02  0.60114477359E-03 -0.28723209499E-01  0.28777945121E-01  0.00000000000E+00 0.  1.
</event>
<event>
 5   0  0.1792268E+06  0.9118800E+02  0.7546771E-02  0.1180000E+00
      -11   -1    0    0    0    0  0.00000000000E+00  0.00000000000E+00  0.34996269501E-01  0.35000000000E-01  0.51099999109E-03 0.  1.
       11   -1    0    0    0    0 -0.00000000000E+00 -0.00000000000E+00 -0.34996269501E-01  0.35000000000E-01  0.51099999109E-03 0.  1.
       22    1    1    2    0    0 -0.10655869570E-02  0.85712780350E-03 -0.31646859457E-01  0.31676392742E-01  0.00000000000E+00 0.  1.
       22    1    1    2    0    0 -0.15793766170E-03  0.19952988284E-02 -0.29625450263E-02  0.35753090429E-02  0.00000000000E+00 0. -1.
       22    1    1    2    0    0  0.12235246187E-02 -0.28524266319E-02  0.34609404483E-01  0.34748298215E-01  0.00000000000E+00 0.  1.
</event>
<event>
 5   0  0.1792268E+06  0.9118800E+02  0.7546771E-02  0.1180000E+00
      -11   -1    0    0    0    0  0.00000000000E+00  0.00000000000E+00  0.34996269501E-01  0.35000000000E-01  0.51099999109E-03 0.  1.
       11   -1    0    0    0    0 -0.00000000000E+00 -0.00000000000E+00 -0.34996269501E-01  0.35000000000E-01  0.51099999109E-03 0. -1.
       22    1    1    2    0    0  0.40281832579E-02 -0.65930016584E-02  0.33914556394E-01  0.34783488419E-01  0.00000000000E+00 0.  1.
       22    1    1    2    0    0 -0.41744282669E-02  0.67185973381E-02 -0.34065448153E-01  0.34971705126E-01  0.00000000000E+00 0. -1.
       22    1    1    2    0    0  0.14624500899E-03 -0.12559567967E-03  0.15089175913E-03  0.24480645494E-03  0.00000000000E+00 0. -1.
</event>
<event>
 5   0  0.1792268E+06  0.9118800E+02  0.7546771E-02  0.1180000E+00
      -11   -1    0    0    0    0  0.00000000000E+00  0.00000000000E+00  0.34996269501E-01  0.35000000000E-01  0.51099999109E-03 0.  1.
       11   -1    0    0    0    0 -0.00000000000E+00 -0.00000000000E+00 -0.34996269501E-01  0.35000000000E-01  0.51099999109E-03 0. -1.
       22    1    1    2    0    0  0.10528479652E-01 -0.41437181937E-02  0.32820267927E-01  0.34715836027E-01  0.00000000000E+00 0.  1.
       22    1    1    2    0    0 -0.10525088407E-01  0.41471337517E-02 -0.33112637032E-01  0.34991755251E-01  0.00000000000E+00 0. -1.
       22    1    1    2    0    0 -0.33912453093E-05 -0.34155579505E-05  0.29236910519E-03  0.29240872123E-03  0.00000000000E+00 0. -1.
</event>
<event>
 5   0  0.1792268E+06  0.9118800E+02  0.7546771E-02  0.1180000E+00
      -11   -1    0    0    0    0  0.00000000000E+00  0.00000000000E+00  0.34996269501E-01  0.35000000000E-01  0.51099999109E-03 0.  1.
       11   -1    0    0    0    0 -0.00000000000E+00 -0.00000000000E+00 -0.34996269501E-01  0.35000000000E-01  0.51099999109E-03 0. -1.
       22    1    1    2    0    0  0.49109945779E-02  0.87035274963E-02  0.33542878497E-01  0.34999913664E-01  0.00000000000E+00 0.  1.
       22    1    1    2    0    0  0.74989105100E-08  0.97406883856E-08  0.85950493824E-07  0.86825123424E-07  0.00000000000E+00 0.  1.
       22    1    1    2    0    0 -0.49110020768E-02 -0.87035372370E-02 -0.33542964448E-01  0.34999999511E-01  0.00000000000E+00 0. -1.
</event>
<event>
 5   0  0.1792268E+06  0.9118800E+02  0.7546771E-02  0.1180000E+00
      -11   -1    0    0    0    0  0.00000000000E+00  0.00000000000E+00  0.34996269501E-01  0.35000000000E-01  0.51099999109E-03 0.  1.
       11   -1    0    0    0    0 -0.00000000000E+00 -0.00000000000E+00 -0.34996269501E-01  0.35000000000E-01  0.51099999109E-03 0. -1.
       22    1    1    2    0    0 -0.13909108406E-01  0.10765723092E-01 -0.29871842348E-01  0.34665415843E-01  0.00000000000E+00 0. -1.
       22    1    1    2    0    0  0.13897001652E-01 -0.10923262512E-01  0.30187354816E-01  0.34981719650E-01  0.00000000000E+00 0.  1.
       22    1    1    2    0    0  0.12106754197E-04  0.15753941994E-03 -0.31551246872E-03  0.35286450693E-03  0.00000000000E+00 0. -1.
</event>
<event>
 5   0  0.1792268E+06  0.9118800E+02  0.7546771E-02  0.1180000E+00
      -11   -1    0    0    0    0  0.00000000000E+00  0.00000000000E+00  0.34996269501E-01  0.35000000000E-01  0.51099999109E-03 0.  1.
       11   -1    0    0    0    0 -0.00000000000E+00 -0.00000000000E+00 -0.34996269501E-01  0.35000000000E-01  0.51099999109E-03 0. -1.
       22    1    1    2    0    0  0.26149148797E-01 -0.21936987461E-01 -0.77388265949E-02  0.34998554809E-01  0.00000000000E+00 0. -1.
       22    1    1    2    0    0 -0.26149300072E-01  0.21936733241E-01  0.77350713704E-02  0.34997678332E-01  0.00000000000E+00 0.  1.
       22    1    1    2    0    0  0.15127417783E-06  0.25421967300E-06  0.37552244913E-05  0.37668584389E-05  0.00000000000E+00 0. -1.
</event>
<event>
 5   0  0.1792268E+06  0.9118800E+02  0.7546771E-02  0.1180000E+00
      -11   -1    0    0    0    0  0.00000000000E+00  0.00000000000E+00  0.34996269501E-01  0.35000000000E-01  0.51099999109E-03 0. -1.
       11   -1    0    0    0    0 -0.00000000000E+00 -0.00000000000E+00 -0.34996269501E-01  0.35000000000E-01  0.51099999109E-03 0.  1.
       22    1    1    2    0    0 -0.15124406560E-02  0.63574954088E-02 -0.34384491104E-01  0.34999977901E-01  0.00000000000E+00 0.  1.
       22    1    1    2    0    0  0.15125317772E-02 -0.63575627376E-02  0.34384228724E-01  0.34999736304E-01  0.00000000000E+00 0. -1.
       22    1    1    2    0    0 -0.91121149178E-07  0.67328759199E-07  0.26237918706E-06  0.28579549234E-06  0.00000000000E+00 0. -1.
</event>
<event>
 5   0  0.1792268E+06  0.9118800E+02  0.7546771E-02  0.1180000E+00
      -11   -1    0    0    0    0  0.00000000000E+00  0.00000000000E+00  0.34996269501E-01  0.35000000000E-01  0.51099999109E-03 0. -1.
       11   -1    0    0    0    0 -0.00000000000E+00 -0.00000000000E+00 -0.34996269501E-01  0.35000000000E-01  0.51099999109E-03 0.  1.
       22    1    1    2    0    0  0.23840982650E-01 -0.73837002519E-02 -0.22212569880E-01  0.33411221825E-01  0.00000000000E+00 0.  1.
       22    1    1    2    0    0 -0.24115791005E-01  0.73393634073E-02  0.23984553720E-01  0.34795063561E-01  0.00000000000E+00 0. -1.
       22    1    1    2    0    0  0.27480835497E-03  0.44336844664E-04 -0.17719838403E-02  0.17937146144E-02  0.00000000000E+00 0. -1.
</event>
<event>
 5   0  0.1792268E+06  0.9118800E+02  0.7546771E-02  0.1180000E+00
      -11   -1    0    0    0    0  0.00000000000E+00  0.00000000000E+00  0.34996269501E-01  0.35000000000E-01  0.51099999109E-03 0. -1.
       11   -1    0    0    0    0 -0.00000000000E+00 -0.00000000000E+00 -0.34996269501E-01  0.35000000000E-01  0.51099999109E-03 0.  1.
       22    1    1    2    0    0  0.79957632329E-03 -0.35325967041E-03 -0.34988056052E-01  0.34998973999E-01  0.00000000000E+00 0.  1.
       22    1    1    2    0    0 -0.79911722342E-03  0.39970064247E-03  0.34147627598E-01  0.34159315267E-01  0.00000000000E+00 0. -1.
       22    1    1    2    0    0 -0.45909986611E-06 -0.46440972059E-04  0.84042845367E-03  0.84171073439E-03  0.00000000000E+00 0. -1.
</event>
</LesHouchesEvents>
