<event>
 5   0  0.1085190E+08  0.9118800E+02  0.7546771E-02  0.1180000E+00
      -11   -1    0    0    0    0  0.00000000000E+00  0.00000000000E+00  0.34996269501E-01  0.35000000000E-01  0.51099999109E-03 0.  1.
       11   -1    0    0    0    0 -0.00000000000E+00 -0.00000000000E+00 -0.34996269501E-01  0.35000000000E-01  0.51099999109E-03 0.  1.
       22    1    1    2    0    0  0.62776749016E-03  0.29105113931E-03  0.34993143546E-01  0.34999984257E-01  0.00000000000E+00 0.  1.
       22    1    1    2    0    0 -0.62776298973E-03 -0.29104737460E-03 -0.34993158801E-01  0.34999999398E-01  0.00000000000E+00 0.  1.
       22    1    1    2    0    0 -0.45004269168E-08 -0.37647070794E-08  0.15255392802E-07  0.16344842348E-07  0.00000000000E+00 0.  1.
</event>
<event>
 5   0  0.1085190E+08  0.9118800E+02  0.7546771E-02  0.1180000E+00
      -11   -1    0    0    0    0  0.00000000000E+00  0.00000000000E+00  0.34996269501E-01  0.35000000000E-01  0.51099999109E-03 0.  1.
       11   -1    0    0    0    0 -0.00000000000E+00 -0.00000000000E+00 -0.34996269501E-01  0.35000000000E-01  0.51099999109E-03 0. -1.
       22    1    1    2    0    0 -0.11688831479E-01  0.22674614430E-01 -0.23800611314E-01  0.34888909696E-01  0.00000000000E+00 0. -1.
       22    1    1    2    0    0  0.11749485287E-01 -0.22645080291E-01  0.23921482965E-01  0.34972666658E-01  0.00000000000E+00 0.  1.
       22    1    1    2    0    0 -0.60653807996E-04 -0.29534138571E-04 -0.12087165127E-03  0.13842364627E-03  0.00000000000E+00 0. -1.
</event>
<event>
 5   0  0.1085190E+08  0.9118800E+02  0.7546771E-02  0.1180000E+00
      -11   -1    0    0    0    0  0.00000000000E+00  0.00000000000E+00  0.34996269501E-01  0.35000000000E-01  0.51099999109E-03 0. -1.
       11   -1    0    0    0    0 -0.00000000000E+00 -0.00000000000E+00 -0.34996269501E-01  0.35000000000E-01  0.51099999109E-03 0. -1.
       22    1    1    2    0    0  0.98696346904E-09  0.12635935020E-09 -0.35000453615E-01  0.34999570819E-01  0.00000000000E+00 0. -1.
       22    1    1    2    0    0  0.14917910110E-04  0.19099161082E-05  0.13131627276E-03  0.13217471510E-03  0.00000000000E+00 0. -1.
       22    1    1    2    0    0 -0.14918897073E-04 -0.19100424676E-05  0.34869137343E-01  0.34868254466E-01  0.00000000000E+00 0. -1.
</event>
<event>
 5   0  0.1085190E+08  0.9118800E+02  0.7546771E-02  0.1180000E+00
      -11   -1    0    0    0    0  0.00000000000E+00  0.00000000000E+00  0.34996269501E-01  0.35000000000E-01  0.51099999109E-03 0.  1.
       11   -1    0    0    0    0 -0.00000000000E+00 -0.00000000000E+00 -0.34996269501E-01  0.35000000000E-01  0.51099999109E-03 0.  1.
       22    1    1    2    0    0  0.24408792538E-03 -0.83376998146E-03 -0.34683118485E-01  0.34693997451E-01  0.00000000000E+00 0.  1.
       22    1    1    2    0    0 -0.31461806894E-03  0.50053852423E-03 -0.29283208453E-04  0.59192976766E-03  0.00000000000E+00 0. -1.
       22    1    1    2    0    0  0.70530143556E-04  0.33323145723E-03  0.34712401694E-01  0.34714072781E-01  0.00000000000E+00 0.  1.
</event>
<event>
 5   0  0.1085190E+08  0.9118800E+02  0.7546771E-02  0.1180000E+00
      -11   -1    0    0    0    0  0.00000000000E+00  0.00000000000E+00  0.34996269501E-01  0.35000000000E-01  0.51099999109E-03 0. -1.
       11   -1    0    0    0    0 -0.00000000000E+00 -0.00000000000E+00 -0.34996269501E-01  0.35000000000E-01  0.51099999109E-03 0.  1.
       22    1    1    2    0    0  0.20867288922E-02  0.98414315139E-02 -0.33216821169E-01  0.34706849761E-01  0.00000000000E+00 0.  1.
       22    1    1    2    0    0 -0.15962044910E-02  0.30476264708E-03  0.29607962221E-02  0.33774344283E-02  0.00000000000E+00 0. -1.
       22    1    1    2    0    0 -0.49052440117E-03 -0.10146194161E-01  0.30256024947E-01  0.31915715811E-01  0.00000000000E+00 0. -1.
</event>
<event>
 5   0  0.1085190E+08  0.9118800E+02  0.7546771E-02  0.1180000E+00
      -11   -1    0    0    0    0  0.00000000000E+00  0.00000000000E+00  0.34996269501E-01  0.35000000000E-01  0.51099999109E-03 0. -1.
       11   -1    0    0    0    0 -0.00000000000E+00 -0.00000000000E+00 -0.34996269501E-01  0.35000000000E-01  0.51099999109E-03 0.  1.
       22    1    1    2    0    0  0.89368081113E-03  0.21825306697E-03  0.13165530341E-01  0.13197631945E-01  0.00000000000E+00 0. -1.
       22    1    1    2    0    0 -0.14043129787E-02 -0.10082440760E-02  0.21777835014E-01  0.21846344064E-01  0.00000000000E+00 0.  1.
       22    1    1    2    0    0  0.51063216753E-03  0.78999100905E-03 -0.34943365355E-01  0.34956023992E-01  0.00000000000E+00 0.  1.
</event>
<event>
 5   0  0.1085190E+08  0.9118800E+02  0.7546771E-02  0.1180000E+00
      -11   -1    0    0    0    0  0.00000000000E+00  0.00000000000E+00  0.34996269501E-01  0.35000000000E-01  0.51099999109E-03 0. -1.
       11   -1    0    0    0    0 -0.00000000000E+00 -0.00000000000E+00 -0.34996269501E-01  0.35000000000E-01  0.51099999109E-03 0.  1.
       22    1    1    2    0    0  0.46659408195E-03 -0.52232594139E-02 -0.34604910638E-01  0.34999999846E-01  0.00000000000E+00 0.  1.
       22    1    1    2    0    0  0.60734702693E-09  0.15838596910E-08  0.25791971826E-08  0.30870277029E-08  0.00000000000E+00 0.  1.
       22    1    1    2    0    0 -0.46659468930E-03  0.52232578301E-02  0.34604908059E-01  0.34999997067E-01  0.00000000000E+00 0. -1.
</event>
<event>
 5   0  0.1085190E+08  0.9118800E+02  0.7546771E-02  0.1180000E+00
      -11   -1    0    0    0    0  0.00000000000E+00  0.00000000000E+00  0.34996269501E-01  0.35000000000E-01  0.51099999109E-03 0. -1.
       11   -1    0    0    0    0 -0.00000000000E+00 -0.00000000000E+00 -0.34996269501E-01  0.35000000000E-01  0.51099999109E-03 0.  1.
       22    1    1    2    0    0  0.35580438053E-02 -0.78465649269E-02 -0.33659796862E-01  0.34744930302E-01  0.00000000000E+00 0.  1.
       22    1    1    2    0    0 -0.37803248261E-02  0.76170243073E-02  0.33837377473E-01  0.34889511739E-01  0.00000000000E+00 0. -1.
       22    1    1    2    0    0  0.22228102073E-03  0.22954061957E-03 -0.17758061103E-03  0.36555795932E-03  0.00000000000E+00 0.  1.
</event>
<event>
 5   0  0.1085190E+08  0.9118800E+02  0.7546771E-02  0.1180000E+00
      -11   -1    0    0    0    0  0.00000000000E+00  0.00000000000E+00  0.34996269501E-01  0.35000000000E-01  0.51099999109E-03 0. -1.
       11   -1    0    0    0    0 -0.00000000000E+00 -0.00000000000E+00 -0.34996269501E-01  0.35000000000E-01  0.51099999109E-03 0.  1.
       22    1    1    2    0    0  0.28840013950E-03  0.30168616789E-03  0.71295881619E-02  0.71417936502E-02  0.00000000000E+00 0. -1.
       22    1    1    2    0    0  0.97115633061E-02  0.27558365887E-01  0.70182754439E-02  0.30050527157E-01  0.00000000000E+00 0. -1.
       22    1    1    2    0    0 -0.99999634456E-02 -0.27860052055E-01 -0.14147863606E-01  0.32807679193E-01  0.00000000000E+00 0.  1.
</event>
<event>
 5   0  0.1085190E+08  0.9118800E+02  0.7546771E-02  0.1180000E+00
      -11   -1    0    0    0    0  0.00000000000E+00  0.00000000000E+00  0.34996269501E-01  0.35000000000E-01  0.51099999109E-03 0.  1.
       11   -1    0    0    0    0 -0.00000000000E+00 -0.00000000000E+00 -0.34996269501E-01  0.35000000000E-01  0.51099999109E-03 0. -1.
       22    1    1    2    0    0  0.39223796037E-03  0.30564695315E-03  0.24581824395E-02  0.25079736010E-02  0.00000000000E+00 0.  1.
       22    1    1    2    0    0 -0.19401778946E-02  0.22922641069E-01 -0.25771734836E-01  0.34545536330E-01  0.00000000000E+00 0. -1.
       22    1    1    2    0    0  0.15479399342E-02 -0.23228288023E-01  0.23313552397E-01  0.32946490069E-01  0.00000000000E+00 0.  1.
</event>
