<event>
 5   0  0.2592734E+07  0.9118800E+02  0.7546771E-02  0.1180000E+00
      -11   -1    0    0    0    0  0.00000000000E+00  0.00000000000E+00  0.34996269501E-01  0.35000000000E-01  0.51099999109E-03 0. -1.
       11   -1    0    0    0    0 -0.00000000000E+00 -0.00000000000E+00 -0.34996269501E-01  0.35000000000E-01  0.51099999109E-03 0.  1.
       22    1    1    2    0    0 -0.97611747980E-02 -0.81464842091E-02 -0.23184008996E-01  0.26441331501E-01  0.00000000000E+00 0.  1.
       22    1    1    2    0    0  0.93892987945E-02  0.87666964017E-02  0.32119995945E-01  0.34593468129E-01  0.00000000000E+00 0. -1.
       22    1    1    2    0    0  0.37187600350E-03 -0.62021219261E-03 -0.89359869495E-02  0.89652003707E-02  0.00000000000E+00 0. -1.
</event>
<event>
 5   0  0.2592734E+07  0.9118800E+02  0.7546771E-02  0.1180000E+00
      -11   -1    0    0    0    0  0.00000000000E+00  0.00000000000E+00  0.34996269501E-01  0.35000000000E-01  0.51099999109E-03 0.  1.
       11   -1    0    0    0    0 -0.00000000000E+00 -0.00000000000E+00 -0.34996269501E-01  0.35000000000E-01  0.51099999109E-03 0.  1.
       22    1    1    2    0    0  0.51607702035E-03  0.97383757486E-04 -0.34996052780E-01  0.34999993275E-01  0.00000000000E+00 0.  1.
       22    1    1    2    0    0  0.24061224201E-06 -0.22238080707E-06  0.54113670279E-05  0.54212766563E-05  0.00000000000E+00 0.  1.
       22    1    1    2    0    0 -0.51631763259E-03 -0.97161376679E-04  0.34990641413E-01  0.34994585448E-01  0.00000000000E+00 0.  1.
</event>
<event>
 5   0  0.2592734E+07  0.9118800E+02  0.7546771E-02  0.1180000E+00
      -11   -1    0    0    0    0  0.00000000000E+00  0.00000000000E+00  0.34996269501E-01  0.35000000000E-01  0.51099999109E-03 0. -1.
       11   -1    0    0    0    0 -0.00000000000E+00 -0.00000000000E+00 -0.34996269501E-01  0.35000000000E-01  0.51099999109E-03 0.  1.
       22    1    1    2    0    0 -0.23980951777E-02  0.45093009572E-02 -0.34625355175E-01  0.34999998237E-01  0.00000000000E+00 0.  1.
       22    1    1    2    0    0  0.13306146591E-07 -0.10891112607E-07  0.23661501054E-07  0.29249555604E-07  0.00000000000E+00 0. -1.
       22    1    1    2    0    0  0.23980818715E-02 -0.45092900661E-02  0.34625331513E-01  0.34999972514E-01  0.00000000000E+00 0. -1.
</event>
<event>
 5   0  0.2592734E+07  0.9118800E+02  0.7546771E-02  0.1180000E+00
      -11   -1    0    0    0    0  0.00000000000E+00  0.00000000000E+00  0.34996269501E-01  0.35000000000E-01  0.51099999109E-03 0.  1.
       11   -1    0    0    0    0 -0.00000000000E+00 -0.00000000000E+00 -0.34996269501E-01  0.35000000000E-01  0.51099999109E-03 0. -1.
       22    1    1    2    0    0 -0.17744729735E-01 -0.19672836811E-02  0.29214146839E-01  0.34237581895E-01  0.00000000000E+00 0.  1.
       22    1    1    2    0    0 -0.11369476288E-04  0.25896277638E-04  0.81877213732E-03  0.81926045617E-03  0.00000000000E+00 0. -1.
       22    1    1    2    0    0  0.17756099211E-01  0.19413874035E-02 -0.30032918976E-01  0.34943157649E-01  0.00000000000E+00 0. -1.
</event>
<event>
 5   0  0.2592734E+07  0.9118800E+02  0.7546771E-02  0.1180000E+00
      -11   -1    0    0    0    0  0.00000000000E+00  0.00000000000E+00  0.34996269501E-01  0.35000000000E-01  0.51099999109E-03 0. -1.
       11   -1    0    0    0    0 -0.00000000000E+00 -0.00000000000E+00 -0.34996269501E-01  0.35000000000E-01  0.51099999109E-03 0.  1.
       22    1    1    2    0    0  0.39168140392E-04 -0.79454165443E-02 -0.34058641177E-01  0.34973164241E-01  0.00000000000E+00 0.  1.
       22    1    1    2    0    0 -0.30071211456E-04  0.79964203096E-02  0.34047383244E-01  0.34973818033E-01  0.00000000000E+00 0. -1.
       22    1    1    2    0    0 -0.90969289367E-05 -0.51003765240E-04  0.11257933567E-04  0.53017725837E-04  0.00000000000E+00 0.  1.
</event>
<event>
 5   0  0.2592734E+07  0.9118800E+02  0.7546771E-02  0.1180000E+00
      -11   -1    0    0    0    0  0.00000000000E+00  0.00000000000E+00  0.34996269501E-01  0.35000000000E-01  0.51099999109E-03 0.  1.
       11   -1    0    0    0    0 -0.00000000000E+00 -0.00000000000E+00 -0.34996269501E-01  0.35000000000E-01  0.51099999109E-03 0. -1.
       22    1    1    2    0    0 -0.18356948322E-01 -0.94404804367E-02  0.28263762950E-01  0.34999150257E-01  0.00000000000E+00 0.  1.
       22    1    1    2    0    0  0.42723111159E-07 -0.52076248950E-08  0.95129147852E-06  0.95226459594E-06  0.00000000000E+00 0.  1.
       22    1    1    2    0    0  0.18356905599E-01  0.94404856443E-02 -0.28264714242E-01  0.34999897479E-01  0.00000000000E+00 0. -1.
</event>
<event>
 5   0  0.2592734E+07  0.9118800E+02  0.7546771E-02  0.1180000E+00
      -11   -1    0    0    0    0  0.00000000000E+00  0.00000000000E+00  0.34996269501E-01  0.35000000000E-01  0.51099999109E-03 0.  1.
       11   -1    0    0    0    0 -0.00000000000E+00 -0.00000000000E+00 -0.34996269501E-01  0.35000000000E-01  0.51099999109E-03 0. -1.
       22    1    1    2    0    0 -0.46276659675E-07 -0.19825544074E-07  0.41102326726E-07  0.64992174073E-07  0.00000000000E+00 0. -1.
       22    1    1    2    0    0 -0.22043138464E-01 -0.14200206498E-01  0.23182960399E-01  0.34999935297E-01  0.00000000000E+00 0.  1.
       22    1    1    2    0    0  0.22043184740E-01  0.14200226324E-01 -0.23183001501E-01  0.34999999711E-01  0.00000000000E+00 0. -1.
</event>
<event>
 5   0  0.2707027E+07  0.9118800E+02  0.7546771E-02  0.1180000E+00
      -11   -1    0    0    0    0  0.00000000000E+00  0.00000000000E+00  0.34996269501E-01  0.35000000000E-01  0.51099999109E-03 0.  1.
       11   -1    0    0    0    0 -0.00000000000E+00 -0.00000000000E+00 -0.34996269501E-01  0.35000000000E-01  0.51099999109E-03 0. -1.
       22    1    1    2    0    0 -0.28913484470E-01  0.34738677120E-02 -0.19415009846E-01  0.34999999263E-01  0.00000000000E+00 0. -1.
       22    1    1    2    0    0  0.28913482616E-01 -0.34738672668E-02  0.19415003640E-01  0.34999994244E-01  0.00000000000E+00 0.  1.
       22    1    1    2    0    0  0.18542253421E-08 -0.44519459132E-09  0.62067314472E-08  0.64930628443E-08  0.00000000000E+00 0. -1.
</event>
<event>
 5   0  0.2592734E+07  0.9118800E+02  0.7546771E-02  0.1180000E+00
      -11   -1    0    0    0    0  0.00000000000E+00  0.00000000000E+00  0.34996269501E-01  0.35000000000E-01  0.51099999109E-03 0.  1.
       11   -1    0    0    0    0 -0.00000000000E+00 -0.00000000000E+00 -0.34996269501E-01  0.35000000000E-01  0.51099999109E-03 0. -1.
       22    1    1    2    0    0 -0.40304741607E-02 -0.15855797214E-02 -0.34597043025E-01  0.34867092955E-01  0.00000000000E+00 0. -1.
       22    1    1    2    0    0  0.35518467705E-02  0.60374392313E-04  0.30920347963E-01  0.31123739793E-01  0.00000000000E+00 0.  1.
       22    1    1    2    0    0  0.47862739019E-03  0.15252053291E-02  0.36766950622E-02  0.40091672520E-02  0.00000000000E+00 0.  1.
</event>
<event>
 5   0  0.2592734E+07  0.9118800E+02  0.7546771E-02  0.1180000E+00
      -11   -1    0    0    0    0  0.00000000000E+00  0.00000000000E+00  0.34996269501E-01  0.35000000000E-01  0.51099999109E-03 0. -1.
       11   -1    0    0    0    0 -0.00000000000E+00 -0.00000000000E+00 -0.34996269501E-01  0.35000000000E-01  0.51099999109E-03 0. -1.
       22    1    1    2    0    0  0.11369061361E-12  0.14874593005E-10 -0.35000021098E-01  0.34999962079E-01  0.00000000000E+00 0. -1.
       22    1    1    2    0    0  0.20998417168E-08  0.27473060369E-06  0.45969656121E-06  0.53553920708E-06  0.00000000000E+00 0. -1.
       22    1    1    2    0    0 -0.20999554074E-08 -0.27474547828E-06  0.34999561402E-01  0.34999502382E-01  0.00000000000E+00 0. -1.
</event>
<event>
 5   0  0.2592734E+07  0.9118800E+02  0.7546771E-02  0.1180000E+00
      -11   -1    0    0    0    0  0.00000000000E+00  0.00000000000E+00  0.34996269501E-01  0.35000000000E-01  0.51099999109E-03 0.  1.
       11   -1    0    0    0    0 -0.00000000000E+00 -0.00000000000E+00 -0.34996269501E-01  0.35000000000E-01  0.51099999109E-03 0. -1.
       22    1    1    2    0    0 -0.17831754807E-03  0.64370800154E-03  0.10126615053E-02  0.12131118924E-02  0.00000000000E+00 0.  1.
       22    1    1    2    0    0  0.32966185353E-01  0.66135127038E-02  0.68114923721E-02  0.34306039634E-01  0.00000000000E+00 0.  1.
       22    1    1    2    0    0 -0.32787867805E-01 -0.72572207054E-02 -0.78241538774E-02  0.34480848474E-01  0.00000000000E+00 0. -1.
</event>
<event>
 5   0  0.2592734E+07  0.9118800E+02  0.7546771E-02  0.1180000E+00
      -11   -1    0    0    0    0  0.00000000000E+00  0.00000000000E+00  0.34996269501E-01  0.35000000000E-01  0.51099999109E-03 0. -1.
       11   -1    0    0    0    0 -0.00000000000E+00 -0.00000000000E+00 -0.34996269501E-01  0.35000000000E-01  0.51099999109E-03 0.  1.
       22    1    1    2    0    0 -0.86972185004E-03  0.20221589288E-02 -0.34773708063E-01  0.34843310912E-01  0.00000000000E+00 0.  1.
       22    1    1    2    0    0  0.17418615866E-02 -0.77808743789E-03  0.31385529247E-01  0.31443456362E-01  0.00000000000E+00 0. -1.
       22    1    1    2    0    0 -0.87213973658E-03 -0.12440714909E-02  0.33881788159E-02  0.37132327268E-02  0.00000000000E+00 0. -1.
</event>
<event>
 5   0  0.2592734E+07  0.9118800E+02  0.7546771E-02  0.1180000E+00
      -11   -1    0    0    0    0  0.00000000000E+00  0.00000000000E+00  0.34996269501E-01  0.35000000000E-01  0.51099999109E-03 0.  1.
       11   -1    0    0    0    0 -0.00000000000E+00 -0.00000000000E+00 -0.34996269501E-01  0.35000000000E-01  0.51099999109E-03 0. -1.
       22    1    1    2    0    0 -0.10589606386E-01  0.16988344777E-02 -0.32934487996E-01  0.34636776720E-01  0.00000000000E+00 0. -1.
       22    1    1    2    0    0  0.10792539022E-01 -0.17988834169E-02  0.33233481465E-01  0.34988271897E-01  0.00000000000E+00 0.  1.
       22    1    1    2    0    0 -0.20293263613E-03  0.10004893919E-03 -0.29899346894E-03  0.37495138286E-03  0.00000000000E+00 0.  1.
</event>
<event>
 5   0  0.2592734E+07  0.9118800E+02  0.7546771E-02  0.1180000E+00
      -11   -1    0    0    0    0  0.00000000000E+00  0.00000000000E+00  0.34996269501E-01  0.35000000000E-01  0.51099999109E-03 0.  1.
       11   -1    0    0    0    0 -0.00000000000E+00 -0.00000000000E+00 -0.34996269501E-01  0.35000000000E-01  0.51099999109E-03 0. -1.
       22    1    1    2    0    0 -0.12154121943E-02  0.51196281555E-03 -0.34964694193E-01  0.34989558053E-01  0.00000000000E+00 0. -1.
       22    1    1    2    0    0 -0.96000435848E-05  0.33091883743E-04  0.19611767744E-04  0.39646627102E-04  0.00000000000E+00 0. -1.
       22    1    1    2    0    0  0.12250122379E-02 -0.54505469930E-03  0.34945082425E-01  0.34970795320E-01  0.00000000000E+00 0.  1.
</event>
<event>
 5   0  0.2592734E+07  0.9118800E+02  0.7546771E-02  0.1180000E+00
      -11   -1    0    0    0    0  0.00000000000E+00  0.00000000000E+00  0.34996269501E-01  0.35000000000E-01  0.51099999109E-03 0. -1.
       11   -1    0    0    0    0 -0.00000000000E+00 -0.00000000000E+00 -0.34996269501E-01  0.35000000000E-01  0.51099999109E-03 0.  1.
       22    1    1    2    0    0  0.25476058074E-02  0.96754008966E-02  0.33539015860E-01  0.34999560893E-01  0.00000000000E+00 0. -1.
       22    1    1    2    0    0 -0.25477785906E-02 -0.96754289721E-02 -0.33539436063E-01  0.34999983900E-01  0.00000000000E+00 0.  1.
       22    1    1    2    0    0  0.17278324908E-06  0.28075501742E-07  0.42020344395E-06  0.45520678738E-06  0.00000000000E+00 0. -1.
</event>
<event>
 5   0  0.2592734E+07  0.9118800E+02  0.7546771E-02  0.1180000E+00
      -11   -1    0    0    0    0  0.00000000000E+00  0.00000000000E+00  0.34996269501E-01  0.35000000000E-01  0.51099999109E-03 0.  1.
       11   -1    0    0    0    0 -0.00000000000E+00 -0.00000000000E+00 -0.34996269501E-01  0.35000000000E-01  0.51099999109E-03 0. -1.
       22    1    1    2    0    0  0.50613449807E-03 -0.18246508900E-02 -0.34947144394E-01  0.34998406025E-01  0.00000000000E+00 0. -1.
       22    1    1    2    0    0 -0.54302257681E-05 -0.10667055256E-05  0.31736674420E-05  0.63794496318E-05  0.00000000000E+00 0.  1.
       22    1    1    2    0    0 -0.50070427230E-03  0.18257175955E-02  0.34943970727E-01  0.34995214525E-01  0.00000000000E+00 0.  1.
</event>
<event>
 5   0  0.2592734E+07  0.9118800E+02  0.7546771E-02  0.1180000E+00
      -11   -1    0    0    0    0  0.00000000000E+00  0.00000000000E+00  0.34996269501E-01  0.35000000000E-01  0.51099999109E-03 0.  1.
       11   -1    0    0    0    0 -0.00000000000E+00 -0.00000000000E+00 -0.34996269501E-01  0.35000000000E-01  0.51099999109E-03 0. -1.
       22    1    1    2    0    0  0.18321953485E-02 -0.29586307148E-02 -0.34821735252E-01  0.34995195120E-01  0.00000000000E+00 0. -1.
       22    1    1    2    0    0 -0.11817869484E-02  0.16575302254E-02  0.23917588809E-01  0.24004063849E-01  0.00000000000E+00 0.  1.
       22    1    1    2    0    0 -0.65040840014E-03  0.13011004894E-02  0.10904146444E-01  0.11000741031E-01  0.00000000000E+00 0.  1.
</event>
<event>
 5   0  0.2592734E+07  0.9118800E+02  0.7546771E-02  0.1180000E+00
      -11   -1    0    0    0    0  0.00000000000E+00  0.00000000000E+00  0.34996269501E-01  0.35000000000E-01  0.51099999109E-03 0.  1.
       11   -1    0    0    0    0 -0.00000000000E+00 -0.00000000000E+00 -0.34996269501E-01  0.35000000000E-01  0.51099999109E-03 0. -1.
       22    1    1    2    0    0  0.10936275157E-03 -0.34664728842E-03 -0.13878221021E-02  0.14346340094E-02  0.00000000000E+00 0. -1.
       22    1    1    2    0    0  0.26449079525E-01  0.16259687813E-01 -0.13922288757E-01  0.34025892784E-01  0.00000000000E+00 0. -1.
       22    1    1    2    0    0 -0.26558442276E-01 -0.15913040525E-01  0.15310110859E-01  0.34539473207E-01  0.00000000000E+00 0.  1.
</event>
<event>
 5   0  0.3480768E+07  0.9118800E+02  0.7546771E-02  0.1180000E+00
      -11   -1    0    0    0    0  0.00000000000E+00  0.00000000000E+00  0.34996269501E-01  0.35000000000E-01  0.51099999109E-03 0. -1.
       11   -1    0    0    0    0 -0.00000000000E+00 -0.00000000000E+00 -0.34996269501E-01  0.35000000000E-01  0.51099999109E-03 0.  1.
       22    1    1    2    0    0  0.47570568861E-03 -0.46570827902E-03 -0.34993665258E-01  0.34999996976E-01  0.00000000000E+00 0.  1.
       22    1    1    2    0    0 -0.47572599228E-03  0.46569407841E-03  0.34993616666E-01  0.34999948479E-01  0.00000000000E+00 0. -1.
       22    1    1    2    0    0  0.20303661414E-07  0.14200614400E-07  0.48592588488E-07  0.54544805179E-07  0.00000000000E+00 0.  1.
</event>
<event>
 5   0  0.2592734E+07  0.9118800E+02  0.7546771E-02  0.1180000E+00
      -11   -1    0    0    0    0  0.00000000000E+00  0.00000000000E+00  0.34996269501E-01  0.35000000000E-01  0.51099999109E-03 0.  1.
       11   -1    0    0    0    0 -0.00000000000E+00 -0.00000000000E+00 -0.34996269501E-01  0.35000000000E-01  0.51099999109E-03 0. -1.
       22    1    1    2    0    0 -0.14278570851E-03  0.80929612469E-03 -0.18571601238E-02  0.20308598429E-02  0.00000000000E+00 0.  1.
       22    1    1    2    0    0  0.85053501685E-02  0.85681633135E-02  0.32596850714E-01  0.34760740506E-01  0.00000000000E+00 0.  1.
       22    1    1    2    0    0 -0.83625644600E-02 -0.93774594382E-02 -0.30739690590E-01  0.33208399652E-01  0.00000000000E+00 0. -1.
</event>
<event>
 5   0  0.2592734E+07  0.9118800E+02  0.7546771E-02  0.1180000E+00
      -11   -1    0    0    0    0  0.00000000000E+00  0.00000000000E+00  0.34996269501E-01  0.35000000000E-01  0.51099999109E-03 0.  1.
       11   -1    0    0    0    0 -0.00000000000E+00 -0.00000000000E+00 -0.34996269501E-01  0.35000000000E-01  0.51099999109E-03 0. -1.
       22    1    1    2    0    0  0.10603574935E-01 -0.15465360879E-01  0.29509300252E-01  0.34963008879E-01  0.00000000000E+00 0.  1.
       22    1    1    2    0    0 -0.10538323422E-01  0.15490037116E-01 -0.29015832985E-01  0.34538617144E-01  0.00000000000E+00 0. -1.
       22    1    1    2    0    0 -0.65251512180E-04 -0.24676237512E-04 -0.49346726734E-03  0.49837397652E-03  0.00000000000E+00 0.  1.
</event>
<event>
 5   0  0.2592734E+07  0.9118800E+02  0.7546771E-02  0.1180000E+00
      -11   -1    0    0    0    0  0.00000000000E+00  0.00000000000E+00  0.34996269501E-01  0.35000000000E-01  0.51099999109E-03 0.  1.
       11   -1    0    0    0    0 -0.00000000000E+00 -0.00000000000E+00 -0.34996269501E-01  0.35000000000E-01  0.51099999109E-03 0. -1.
       22    1    1    2    0    0  0.28359780883E-06 -0.61615062541E-08  0.19342609813E-05  0.19549504406E-05  0.00000000000E+00 0. -1.
       22    1    1    2    0    0  0.51726592404E-02 -0.94463874045E-03  0.34600786567E-01  0.34998045331E-01  0.00000000000E+00 0.  1.
       22    1    1    2    0    0 -0.51729428382E-02  0.94464490195E-03 -0.34602720828E-01  0.34999999718E-01  0.00000000000E+00 0. -1.
</event>
<event>
 5   0  0.2592734E+07  0.9118800E+02  0.7546771E-02  0.1180000E+00
      -11   -1    0    0    0    0  0.00000000000E+00  0.00000000000E+00  0.34996269501E-01  0.35000000000E-01  0.51099999109E-03 0.  1.
       11   -1    0    0    0    0 -0.00000000000E+00 -0.00000000000E+00 -0.34996269501E-01  0.35000000000E-01  0.51099999109E-03 0. -1.
       22    1    1    2    0    0 -0.69689935359E-03 -0.19417534105E-02  0.34877325031E-01  0.34938286683E-01  0.00000000000E+00 0.  1.
       22    1    1    2    0    0  0.58798718689E-03  0.14087700660E-02 -0.33966601716E-01  0.34000888138E-01  0.00000000000E+00 0. -1.
       22    1    1    2    0    0  0.10891216670E-03  0.53298334449E-03 -0.91072331456E-03  0.10608251794E-02  0.00000000000E+00 0. -1.
</event>
<event>
 5   0  0.2592734E+07  0.9118800E+02  0.7546771E-02  0.1180000E+00
      -11   -1    0    0    0    0  0.00000000000E+00  0.00000000000E+00  0.34996269501E-01  0.35000000000E-01  0.51099999109E-03 0. -1.
       11   -1    0    0    0    0 -0.00000000000E+00 -0.00000000000E+00 -0.34996269501E-01  0.35000000000E-01  0.51099999109E-03 0.  1.
       22    1    1    2    0    0 -0.56412388194E-03  0.45688642528E-02  0.24860336974E-01  0.25282980654E-01  0.00000000000E+00 0. -1.
       22    1    1    2    0    0  0.14835506198E-03 -0.12313754334E-02  0.98079061393E-02  0.98860162613E-02  0.00000000000E+00 0.  1.
       22    1    1    2    0    0  0.41576881996E-03 -0.33374888194E-02 -0.34668243113E-01  0.34831003084E-01  0.00000000000E+00 0.  1.
</event>
<event>
 5   0  0.2592734E+07  0.9118800E+02  0.7546771E-02  0.1180000E+00
      -11   -1    0    0    0    0  0.00000000000E+00  0.00000000000E+00  0.34996269501E-01  0.35000000000E-01  0.51099999109E-03 0.  1.
       11   -1    0    0    0    0 -0.00000000000E+00 -0.00000000000E+00 -0.34996269501E-01  0.35000000000E-01  0.51099999109E-03 0. -1.
       22    1    1    2    0    0  0.37596904428E-02 -0.15600189919E-01  0.30989530492E-01  0.34897739151E-01  0.00000000000E+00 0.  1.
       22    1    1    2    0    0 -0.37045048219E-02  0.15740486472E-01 -0.29812828345E-01  0.33915940269E-01  0.00000000000E+00 0. -1.
       22    1    1    2    0    0 -0.55185620875E-04 -0.14029655351E-03 -0.11767021470E-02  0.11863205800E-02  0.00000000000E+00 0.  1.
</event>
<event>
 5   0  0.2592734E+07  0.9118800E+02  0.7546771E-02  0.1180000E+00
      -11   -1    0    0    0    0  0.00000000000E+00  0.00000000000E+00  0.34996269501E-01  0.35000000000E-01  0.51099999109E-03 0. -1.
       11   -1    0    0    0    0 -0.00000000000E+00 -0.00000000000E+00 -0.34996269501E-01  0.35000000000E-01  0.51099999109E-03 0.  1.
       22    1    1    2    0    0  0.45333218624E-03  0.45458144732E-02 -0.28833821760E-01  0.29193479008E-01  0.00000000000E+00 0.  1.
       22    1    1    2    0    0 -0.22748507956E-02 -0.47525599659E-02  0.34474811926E-01  0.34875126232E-01  0.00000000000E+00 0. -1.
       22    1    1    2    0    0  0.18215186093E-02  0.20674549272E-03 -0.56409901660E-02  0.59313947597E-02  0.00000000000E+00 0. -1.
</event>
<event>
 5   0  0.2592734E+07  0.9118800E+02  0.7546771E-02  0.1180000E+00
      -11   -1    0    0    0    0  0.00000000000E+00  0.00000000000E+00  0.34996269501E-01  0.35000000000E-01  0.51099999109E-03 0. -1.
       11   -1    0    0    0    0 -0.00000000000E+00 -0.00000000000E+00 -0.34996269501E-01  0.35000000000E-01  0.51099999109E-03 0.  1.
       22    1    1    2    0    0 -0.25297950111E-04 -0.36087304954E-05  0.43473187339E-02  0.43473938381E-02  0.00000000000E+00 0.  1.
       22    1    1    2    0    0  0.88698908895E-02 -0.60792364495E-02  0.28836261233E-01  0.30775997824E-01  0.00000000000E+00 0. -1.
       22    1    1    2    0    0 -0.88445929394E-02  0.60828451800E-02 -0.33183579967E-01  0.34876608338E-01  0.00000000000E+00 0.  1.
</event>
<event>
 5   0  0.2592734E+07  0.9118800E+02  0.7546771E-02  0.1180000E+00
      -11   -1    0    0    0    0  0.00000000000E+00  0.00000000000E+00  0.34996269501E-01  0.35000000000E-01  0.51099999109E-03 0.  1.
       11   -1    0    0    0    0 -0.00000000000E+00 -0.00000000000E+00 -0.34996269501E-01  0.35000000000E-01  0.51099999109E-03 0. -1.
       22    1    1    2    0    0  0.81969716065E-02  0.21360056398E-02  0.23585006514E-01  0.25060035832E-01  0.00000000000E+00 0.  1.
       22    1    1    2    0    0  0.27539117506E-02 -0.73966147574E-02 -0.30125576092E-01  0.31142322885E-01  0.00000000000E+00 0. -1.
       22    1    1    2    0    0 -0.10950883357E-01  0.52606091176E-02  0.65405695773E-02  0.13797641283E-01  0.00000000000E+00 0.  1.
</event>
<event>
 5   0  0.2592734E+07  0.9118800E+02  0.7546771E-02  0.1180000E+00
      -11   -1    0    0    0    0  0.00000000000E+00  0.00000000000E+00  0.34996269501E-01  0.35000000000E-01  0.51099999109E-03 0. -1.
       11   -1    0    0    0    0 -0.00000000000E+00 -0.00000000000E+00 -0.34996269501E-01  0.35000000000E-01  0.51099999109E-03 0.  1.
       22    1    1    2    0    0 -0.19344388641E-06  0.16469874140E-06  0.44936684342E-06  0.51621388258E-06  0.00000000000E+00 0.  1.
       22    1    1    2    0    0 -0.28570081109E-03 -0.40574963987E-03  0.34995999204E-01  0.34999517397E-01  0.00000000000E+00 0. -1.
       22    1    1    2    0    0  0.28589425498E-03  0.40558494113E-03 -0.34996448571E-01  0.34999966389E-01  0.00000000000E+00 0.  1.
</event>
<event>
 5   0  0.2592734E+07  0.9118800E+02  0.7546771E-02  0.1180000E+00
      -11   -1    0    0    0    0  0.00000000000E+00  0.00000000000E+00  0.34996269501E-01  0.35000000000E-01  0.51099999109E-03 0.  1.
       11   -1    0    0    0    0 -0.00000000000E+00 -0.00000000000E+00 -0.34996269501E-01  0.35000000000E-01  0.51099999109E-03 0.  1.
       22    1    1    2    0    0 -0.43299452694E-03 -0.37698434573E-03 -0.34892234024E-01  0.34896956839E-01  0.00000000000E+00 0.  1.
       22    1    1    2    0    0 -0.87479704489E-04 -0.78897785888E-05  0.34003205781E-01  0.34003319225E-01  0.00000000000E+00 0.  1.
       22    1    1    2    0    0  0.52047423143E-03  0.38487412432E-03  0.88902824336E-03  0.10997239357E-02  0.00000000000E+00 0. -1.
</event>
<event>
 5   0  0.2592734E+07  0.9118800E+02  0.7546771E-02  0.1180000E+00
      -11   -1    0    0    0    0  0.00000000000E+00  0.00000000000E+00  0.34996269501E-01  0.35000000000E-01  0.51099999109E-03 0.  1.
       11   -1    0    0    0    0 -0.00000000000E+00 -0.00000000000E+00 -0.34996269501E-01  0.35000000000E-01  0.51099999109E-03 0. -1.
       22    1    1    2    0    0  0.59166238472E-02  0.33736180172E-02 -0.34326389450E-01  0.34995553274E-01  0.00000000000E+00 0. -1.
       22    1    1    2    0    0 -0.58396352918E-02 -0.32778812649E-02  0.34045499903E-01  0.34697866066E-01  0.00000000000E+00 0.  1.
       22    1    1    2    0    0 -0.76988555386E-04 -0.95736752354E-04  0.28088954691E-03  0.30658065982E-03  0.00000000000E+00 0.  1.
</event>
<event>
 5   0  0.2592734E+07  0.9118800E+02  0.7546771E-02  0.1180000E+00
      -11   -1    0    0    0    0  0.00000000000E+00  0.00000000000E+00  0.34996269501E-01  0.35000000000E-01  0.51099999109E-03 0.  1.
       11   -1    0    0    0    0 -0.00000000000E+00 -0.00000000000E+00 -0.34996269501E-01  0.35000000000E-01  0.51099999109E-03 0. -1.
       22    1    1    2    0    0  0.44094496847E-02 -0.36576340708E-02 -0.34519817818E-01  0.34991989879E-01  0.00000000000E+00 0. -1.
       22    1    1    2    0    0 -0.98908700932E-04  0.24137011340E-03  0.77073190211E-03  0.81367691849E-03  0.00000000000E+00 0. -1.
       22    1    1    2    0    0 -0.43105409837E-02  0.34162639574E-02  0.33749085916E-01  0.34194333202E-01  0.00000000000E+00 0.  1.
</event>
<event>
 5   0  0.2592734E+07  0.9118800E+02  0.7546771E-02  0.1180000E+00
      -11   -1    0    0    0    0  0.00000000000E+00  0.00000000000E+00  0.34996269501E-01  0.35000000000E-01  0.51099999109E-03 0.  1.
       11   -1    0    0    0    0 -0.00000000000E+00 -0.00000000000E+00 -0.34996269501E-01  0.35000000000E-01  0.51099999109E-03 0. -1.
       22    1    1    2    0    0  0.13363693695E-01  0.18257112952E-02  0.18525934266E-01  0.22915753781E-01  0.00000000000E+00 0.  1.
       22    1    1    2    0    0 -0.64574062753E-02 -0.11670069148E-02  0.13129231094E-01  0.14677762434E-01  0.00000000000E+00 0.  1.
       22    1    1    2    0    0 -0.69062874199E-02 -0.65870438035E-03 -0.31655165360E-01  0.32406483786E-01  0.00000000000E+00 0. -1.
</event>
<event>
 5   0  0.2592734E+07  0.9118800E+02  0.7546771E-02  0.1180000E+00
      -11   -1    0    0    0    0  0.00000000000E+00  0.00000000000E+00  0.34996269501E-01  0.35000000000E-01  0.51099999109E-03 0.  1.
       11   -1    0    0    0    0 -0.00000000000E+00 -0.00000000000E+00 -0.34996269501E-01  0.35000000000E-01  0.51099999109E-03 0. -1.
       22    1    1    2    0    0 -0.33614541904E-02 -0.81212609251E-03 -0.18172637869E-02  0.39065804402E-02  0.00000000000E+00 0. -1.
       22    1    1    2    0    0 -0.45209466749E-02 -0.37625081953E-02 -0.31247181976E-01  0.31795940121E-01  0.00000000000E+00 0. -1.
       22    1    1    2    0    0  0.78824008653E-02  0.45746342878E-02  0.33064445763E-01  0.34297479439E-01  0.00000000000E+00 0.  1.
</event>
<event>
 5   0  0.2592734E+07  0.9118800E+02  0.7546771E-02  0.1180000E+00
      -11   -1    0    0    0    0  0.00000000000E+00  0.00000000000E+00  0.34996269501E-01  0.35000000000E-01  0.51099999109E-03 0. -1.
       11   -1    0    0    0    0 -0.00000000000E+00 -0.00000000000E+00 -0.34996269501E-01  0.35000000000E-01  0.51099999109E-03 0.  1.
       22    1    1    2    0    0  0.27623893267E-04 -0.45808515225E-04  0.14620496465E-05  0.53512962313E-04  0.00000000000E+00 0. -1.
       22    1    1    2    0    0  0.92282508236E-04  0.15198776890E-02 -0.34941750810E-01  0.34974912350E-01  0.00000000000E+00 0.  1.
       22    1    1    2    0    0 -0.11990640150E-03 -0.14740691738E-02  0.34940288760E-01  0.34971574687E-01  0.00000000000E+00 0. -1.
</event>
<event>
 5   0  0.2592734E+07  0.9118800E+02  0.7546771E-02  0.1180000E+00
      -11   -1    0    0    0    0  0.00000000000E+00  0.00000000000E+00  0.34996269501E-01  0.35000000000E-01  0.51099999109E-03 0. -1.
       11   -1    0    0    0    0 -0.00000000000E+00 -0.00000000000E+00 -0.34996269501E-01  0.35000000000E-01  0.51099999109E-03 0. -1.
       22    1    1    2    0    0 -0.45555913325E-05 -0.10384866766E-03 -0.34999816246E-01  0.34999970607E-01  0.00000000000E+00 0. -1.
       22    1    1    2    0    0  0.56363602539E-05  0.10339044882E-03  0.34988350024E-01  0.34988503237E-01  0.00000000000E+00 0. -1.
       22    1    1    2    0    0 -0.10807689213E-05  0.45821884090E-06  0.11466221859E-04  0.11526155894E-04  0.00000000000E+00 0. -1.
</event>
<event>
 5   0  0.2592734E+07  0.9118800E+02  0.7546771E-02  0.1180000E+00
      -11   -1    0    0    0    0  0.00000000000E+00  0.00000000000E+00  0.34996269501E-01  0.35000000000E-01  0.51099999109E-03 0. -1.
       11   -1    0    0    0    0 -0.00000000000E+00 -0.00000000000E+00 -0.34996269501E-01  0.35000000000E-01  0.51099999109E-03 0.  1.
       22    1    1    2    0    0 -0.84157232871E-03 -0.19677569999E-03  0.34814925793E-01  0.34825651790E-01  0.00000000000E+00 0. -1.
       22    1    1    2    0    0  0.65283075944E-05 -0.54557042114E-05  0.17433381731E-03  0.17454129415E-03  0.00000000000E+00 0.  1.
       22    1    1    2    0    0  0.83504402112E-03  0.20223140421E-03 -0.34989259610E-01  0.34999806916E-01  0.00000000000E+00 0.  1.
</event>
<event>
 5   0  0.2592734E+07  0.9118800E+02  0.7546771E-02  0.1180000E+00
      -11   -1    0    0    0    0  0.00000000000E+00  0.00000000000E+00  0.34996269501E-01  0.35000000000E-01  0.51099999109E-03 0. -1.
       11   -1    0    0    0    0 -0.00000000000E+00 -0.00000000000E+00 -0.34996269501E-01  0.35000000000E-01  0.51099999109E-03 0.  1.
       22    1    1    2    0    0 -0.28163094774E-01 -0.15472528264E-01  0.13867289348E-01  0.34998010686E-01  0.00000000000E+00 0. -1.
       22    1    1    2    0    0 -0.20369364311E-06 -0.31945391296E-06  0.26113659500E-05  0.26387068855E-05  0.00000000000E+00 0.  1.
       22    1    1    2    0    0  0.28163298467E-01  0.15472847718E-01 -0.13869900714E-01  0.34999350607E-01  0.00000000000E+00 0.  1.
</event>
<event>
 5   0  0.2592734E+07  0.9118800E+02  0.7546771E-02  0.1180000E+00
      -11   -1    0    0    0    0  0.00000000000E+00  0.00000000000E+00  0.34996269501E-01  0.35000000000E-01  0.51099999109E-03 0. -1.
       11   -1    0    0    0    0 -0.00000000000E+00 -0.00000000000E+00 -0.34996269501E-01  0.35000000000E-01  0.51099999109E-03 0. -1.
       22    1    1    2    0    0  0.17522326989E-03 -0.11385390213E-02 -0.20179670908E-02  0.23236104400E-02  0.00000000000E+00 0. -1.
       22    1    1    2    0    0 -0.10705787197E-03  0.15710548158E-02 -0.32808951147E-01  0.32846719014E-01  0.00000000000E+00 0. -1.
       22    1    1    2    0    0 -0.68165397919E-04 -0.43251579455E-03  0.34826918238E-01  0.34829670546E-01  0.00000000000E+00 0. -1.
</event>
<event>
 5   0  0.2592734E+07  0.9118800E+02  0.7546771E-02  0.1180000E+00
      -11   -1    0    0    0    0  0.00000000000E+00  0.00000000000E+00  0.34996269501E-01  0.35000000000E-01  0.51099999109E-03 0.  1.
       11   -1    0    0    0    0 -0.00000000000E+00 -0.00000000000E+00 -0.34996269501E-01  0.35000000000E-01  0.51099999109E-03 0. -1.
       22    1    1    2    0    0 -0.16121400640E-04  0.16287031001E-04  0.49010780532E-04  0.54103821915E-04  0.00000000000E+00 0.  1.
       22    1    1    2    0    0 -0.56039013838E-03 -0.61121762027E-03 -0.34987630710E-01  0.34997456005E-01  0.00000000000E+00 0. -1.
       22    1    1    2    0    0  0.57651153902E-03  0.59493058927E-03  0.34938619930E-01  0.34948440173E-01  0.00000000000E+00 0.  1.
</event>
<event>
 5   0  0.2592734E+07  0.9118800E+02  0.7546771E-02  0.1180000E+00
      -11   -1    0    0    0    0  0.00000000000E+00  0.00000000000E+00  0.34996269501E-01  0.35000000000E-01  0.51099999109E-03 0. -1.
       11   -1    0    0    0    0 -0.00000000000E+00 -0.00000000000E+00 -0.34996269501E-01  0.35000000000E-01  0.51099999109E-03 0.  1.
       22    1    1    2    0    0  0.13503404055E-01 -0.64467691370E-02 -0.31638427699E-01  0.34998469405E-01  0.00000000000E+00 0.  1.
       22    1    1    2    0    0 -0.13498416082E-01  0.64453038097E-02  0.31586431416E-01  0.34949275064E-01  0.00000000000E+00 0. -1.
       22    1    1    2    0    0 -0.49879735549E-05  0.14653272366E-05  0.51996282999E-04  0.52255530902E-04  0.00000000000E+00 0. -1.
</event>
<event>
 5   0  0.2592734E+07  0.9118800E+02  0.7546771E-02  0.1180000E+00
      -11   -1    0    0    0    0  0.00000000000E+00  0.00000000000E+00  0.34996269501E-01  0.35000000000E-01  0.51099999109E-03 0. -1.
       11   -1    0    0    0    0 -0.00000000000E+00 -0.00000000000E+00 -0.34996269501E-01  0.35000000000E-01  0.51099999109E-03 0.  1.
       22    1    1    2    0    0 -0.30701829480E-01 -0.84808146915E-02 -0.13203008053E-01  0.34479645777E-01  0.00000000000E+00 0.  1.
       22    1    1    2    0    0  0.63193719882E-03  0.45844031825E-03  0.24851017193E-02  0.26048498429E-02  0.00000000000E+00 0. -1.
       22    1    1    2    0    0  0.30069892281E-01  0.80223743733E-02  0.10717906334E-01  0.32915504380E-01  0.00000000000E+00 0. -1.
</event>
<event>
 5   0  0.2592734E+07  0.9118800E+02  0.7546771E-02  0.1180000E+00
      -11   -1    0    0    0    0  0.00000000000E+00  0.00000000000E+00  0.34996269501E-01  0.35000000000E-01  0.51099999109E-03 0. -1.
       11   -1    0    0    0    0 -0.00000000000E+00 -0.00000000000E+00 -0.34996269501E-01  0.35000000000E-01  0.51099999109E-03 0.  1.
       22    1    1    2    0    0  0.42951339202E-02 -0.84980028595E-02 -0.33678095054E-01  0.34998261592E-01  0.00000000000E+00 0.  1.
       22    1    1    2    0    0  0.55539941337E-05 -0.25068410260E-05  0.47531273003E-04  0.47920277713E-04  0.00000000000E+00 0.  1.
       22    1    1    2    0    0 -0.43006879143E-02  0.85005097006E-02  0.33630563781E-01  0.34953818131E-01  0.00000000000E+00 0. -1.
</event>
<event>
 5   0  0.2592734E+07  0.9118800E+02  0.7546771E-02  0.1180000E+00
      -11   -1    0    0    0    0  0.00000000000E+00  0.00000000000E+00  0.34996269501E-01  0.35000000000E-01  0.51099999109E-03 0.  1.
       11   -1    0    0    0    0 -0.00000000000E+00 -0.00000000000E+00 -0.34996269501E-01  0.35000000000E-01  0.51099999109E-03 0. -1.
       22    1    1    2    0    0 -0.55355456577E-02 -0.22454162598E-01  0.25685269640E-01  0.34562476187E-01  0.00000000000E+00 0.  1.
       22    1    1    2    0    0 -0.87554991190E-03 -0.52912465695E-04 -0.17783560515E-02  0.19829114007E-02  0.00000000000E+00 0. -1.
       22    1    1    2    0    0  0.64110955696E-02  0.22507075064E-01 -0.23906913588E-01  0.33454612412E-01  0.00000000000E+00 0. -1.
</event>
