<event>
 5   0  0.2463896E+07  0.9118800E+02  0.7546771E-02  0.1180000E+00
      -11   -1    0    0    0    0  0.00000000000E+00  0.00000000000E+00  0.34996269501E-01  0.35000000000E-01  0.51099999109E-03 0.  1.
       11   -1    0    0    0    0 -0.00000000000E+00 -0.00000000000E+00 -0.34996269501E-01  0.35000000000E-01  0.51099999109E-03 0. -1.
       22    1    1    2    0    0  0.81241607810E-02  0.12212741431E-01  0.31772931379E-01  0.34995316973E-01  0.00000000000E+00 0.  1.
       22    1    1    2    0    0 -0.21118248191E-07 -0.55059670071E-07  0.49214619245E-05  0.49218152162E-05  0.00000000000E+00 0. -1.
       22    1    1    2    0    0 -0.81241396628E-02 -0.12212686371E-01 -0.31777852841E-01  0.34999761211E-01  0.00000000000E+00 0. -1.
</event>
<event>
 5   0  0.2463896E+07  0.9118800E+02  0.7546771E-02  0.1180000E+00
      -11   -1    0    0    0    0  0.00000000000E+00  0.00000000000E+00  0.34996269501E-01  0.35000000000E-01  0.51099999109E-03 0.  1.
       11   -1    0    0    0    0 -0.00000000000E+00 -0.00000000000E+00 -0.34996269501E-01  0.35000000000E-01  0.51099999109E-03 0. -1.
       22    1    1    2    0    0  0.28884125721E-03  0.86889795519E-03 -0.34981950777E-01  0.34993932233E-01  0.00000000000E+00 0. -1.
       22    1    1    2    0    0 -0.35484180727E-03 -0.47115484341E-03  0.30580924313E-01  0.30586611964E-01  0.00000000000E+00 0.  1.
       22    1    1    2    0    0  0.66000550060E-04 -0.39774311178E-03  0.44010264648E-02  0.44194558035E-02  0.00000000000E+00 0. -1.
</event>
<event>
 5   0  0.2463896E+07  0.9118800E+02  0.7546771E-02  0.1180000E+00
      -11   -1    0    0    0    0  0.00000000000E+00  0.00000000000E+00  0.34996269501E-01  0.35000000000E-01  0.51099999109E-03 0.  1.
       11   -1    0    0    0    0 -0.00000000000E+00 -0.00000000000E+00 -0.34996269501E-01  0.35000000000E-01  0.51099999109E-03 0. -1.
       22    1    1    2    0    0  0.12704993686E-07  0.27359465417E-07  0.13459626039E-06  0.13793516782E-06  0.00000000000E+00 0. -1.
       22    1    1    2    0    0 -0.12008848340E-01  0.77747549845E-02 -0.31942763781E-01  0.34999991593E-01  0.00000000000E+00 0. -1.
       22    1    1    2    0    0  0.12008835635E-01 -0.77747823439E-02  0.31942629185E-01  0.34999870472E-01  0.00000000000E+00 0.  1.
</event>
<event>
 5   0  0.2463896E+07  0.9118800E+02  0.7546771E-02  0.1180000E+00
      -11   -1    0    0    0    0  0.00000000000E+00  0.00000000000E+00  0.34996269501E-01  0.35000000000E-01  0.51099999109E-03 0.  1.
       11   -1    0    0    0    0 -0.00000000000E+00 -0.00000000000E+00 -0.34996269501E-01  0.35000000000E-01  0.51099999109E-03 0. -1.
       22    1    1    2    0    0 -0.57659705299E-06  0.11237651712E-05  0.27522422418E-05  0.30282255000E-05  0.00000000000E+00 0. -1.
       22    1    1    2    0    0  0.13966128159E-02 -0.66803566762E-03  0.34962873771E-01  0.34997133330E-01  0.00000000000E+00 0.  1.
       22    1    1    2    0    0 -0.13960362188E-02  0.66691190245E-03 -0.34965626013E-01  0.34999838444E-01  0.00000000000E+00 0. -1.
</event>
<event>
 5   0  0.2463896E+07  0.9118800E+02  0.7546771E-02  0.1180000E+00
      -11   -1    0    0    0    0  0.00000000000E+00  0.00000000000E+00  0.34996269501E-01  0.35000000000E-01  0.51099999109E-03 0.  1.
       11   -1    0    0    0    0 -0.00000000000E+00 -0.00000000000E+00 -0.34996269501E-01  0.35000000000E-01  0.51099999109E-03 0. -1.
       22    1    1    2    0    0  0.13654564418E-02  0.18155695627E-02  0.34901663673E-01  0.34975518456E-01  0.00000000000E+00 0.  1.
       22    1    1    2    0    0  0.39565306668E-04  0.62413315820E-04 -0.40034581683E-04  0.84045245041E-04  0.00000000000E+00 0.  1.
       22    1    1    2    0    0 -0.14050217485E-02 -0.18779828785E-02 -0.34861629092E-01  0.34940436299E-01  0.00000000000E+00 0. -1.
</event>
<event>
 5   0  0.2463896E+07  0.9118800E+02  0.7546771E-02  0.1180000E+00
      -11   -1    0    0    0    0  0.00000000000E+00  0.00000000000E+00  0.34996269501E-01  0.35000000000E-01  0.51099999109E-03 0.  1.
       11   -1    0    0    0    0 -0.00000000000E+00 -0.00000000000E+00 -0.34996269501E-01  0.35000000000E-01  0.51099999109E-03 0. -1.
       22    1    1    2    0    0  0.29014216776E-02  0.17695663055E-01 -0.29682897139E-01  0.34678943485E-01  0.00000000000E+00 0. -1.
       22    1    1    2    0    0 -0.33128163687E-02 -0.16970936043E-01  0.24015758412E-01  0.29592973399E-01  0.00000000000E+00 0.  1.
       22    1    1    2    0    0  0.41139469110E-03 -0.72472701192E-03  0.56671387268E-02  0.57280831159E-02  0.00000000000E+00 0.  1.
</event>
<event>
 5   0  0.2463896E+07  0.9118800E+02  0.7546771E-02  0.1180000E+00
      -11   -1    0    0    0    0  0.00000000000E+00  0.00000000000E+00  0.34996269501E-01  0.35000000000E-01  0.51099999109E-03 0.  1.
       11   -1    0    0    0    0 -0.00000000000E+00 -0.00000000000E+00 -0.34996269501E-01  0.35000000000E-01  0.51099999109E-03 0. -1.
       22    1    1    2    0    0  0.96595964462E-02  0.16635346282E-01  0.20227677902E-01  0.27914181033E-01  0.00000000000E+00 0.  1.
       22    1    1    2    0    0 -0.97813852180E-02 -0.17439081983E-01  0.17700092926E-02  0.20073116601E-01  0.00000000000E+00 0. -1.
       22    1    1    2    0    0  0.12178877179E-03  0.80373570076E-03 -0.21997687194E-01  0.22012702366E-01  0.00000000000E+00 0. -1.
</event>
<event>
 5   0  0.2463896E+07  0.9118800E+02  0.7546771E-02  0.1180000E+00
      -11   -1    0    0    0    0  0.00000000000E+00  0.00000000000E+00  0.34996269501E-01  0.35000000000E-01  0.51099999109E-03 0.  1.
       11   -1    0    0    0    0 -0.00000000000E+00 -0.00000000000E+00 -0.34996269501E-01  0.35000000000E-01  0.51099999109E-03 0. -1.
       22    1    1    2    0    0 -0.96523190737E-07 -0.85460288030E-06  0.35575326539E-04  0.35585720748E-04  0.00000000000E+00 0. -1.
       22    1    1    2    0    0  0.75851916267E-02  0.18698539605E-01  0.28558441977E-01  0.34967915630E-01  0.00000000000E+00 0.  1.
       22    1    1    2    0    0 -0.75850951036E-02 -0.18697685002E-01 -0.28594017303E-01  0.34996498649E-01  0.00000000000E+00 0. -1.
</event>
<event>
 5   0  0.2463896E+07  0.9118800E+02  0.7546771E-02  0.1180000E+00
      -11   -1    0    0    0    0  0.00000000000E+00  0.00000000000E+00  0.34996269501E-01  0.35000000000E-01  0.51099999109E-03 0.  1.
       11   -1    0    0    0    0 -0.00000000000E+00 -0.00000000000E+00 -0.34996269501E-01  0.35000000000E-01  0.51099999109E-03 0. -1.
       22    1    1    2    0    0 -0.15031196229E-02 -0.21724283252E-02 -0.34898937162E-01  0.34998780386E-01  0.00000000000E+00 0. -1.
       22    1    1    2    0    0  0.13014508351E-04 -0.34685289622E-05  0.91847494019E-03  0.91857368995E-03  0.00000000000E+00 0. -1.
       22    1    1    2    0    0  0.14901051145E-02  0.21758968541E-02  0.33980462222E-01  0.34082645924E-01  0.00000000000E+00 0.  1.
</event>
<event>
 5   0  0.3106076E+07  0.9118800E+02  0.7546771E-02  0.1180000E+00
      -11   -1    0    0    0    0  0.00000000000E+00  0.00000000000E+00  0.34996269501E-01  0.35000000000E-01  0.51099999109E-03 0. -1.
       11   -1    0    0    0    0 -0.00000000000E+00 -0.00000000000E+00 -0.34996269501E-01  0.35000000000E-01  0.51099999109E-03 0.  1.
       22    1    1    2    0    0 -0.46651345269E-02 -0.10832591536E-02 -0.34670777581E-01  0.34999996408E-01  0.00000000000E+00 0.  1.
       22    1    1    2    0    0 -0.13041658417E-07 -0.17399612885E-07  0.46791567339E-06  0.46842065368E-06  0.00000000000E+00 0.  1.
       22    1    1    2    0    0  0.46651475685E-02  0.10832765532E-02  0.34670309665E-01  0.34999535171E-01  0.00000000000E+00 0. -1.
</event>
<event>
 5   0  0.2463896E+07  0.9118800E+02  0.7546771E-02  0.1180000E+00
      -11   -1    0    0    0    0  0.00000000000E+00  0.00000000000E+00  0.34996269501E-01  0.35000000000E-01  0.51099999109E-03 0. -1.
       11   -1    0    0    0    0 -0.00000000000E+00 -0.00000000000E+00 -0.34996269501E-01  0.35000000000E-01  0.51099999109E-03 0.  1.
       22    1    1    2    0    0 -0.67849688711E-02  0.67972702762E-02  0.33469904485E-01  0.34820585750E-01  0.00000000000E+00 0. -1.
       22    1    1    2    0    0  0.31863219456E-02 -0.52212401150E-02 -0.13419883478E-01  0.14748127625E-01  0.00000000000E+00 0.  1.
       22    1    1    2    0    0  0.35986469255E-02 -0.15760301612E-02 -0.20050021007E-01  0.20431286625E-01  0.00000000000E+00 0.  1.
</event>
<event>
 5   0  0.2463896E+07  0.9118800E+02  0.7546771E-02  0.1180000E+00
      -11   -1    0    0    0    0  0.00000000000E+00  0.00000000000E+00  0.34996269501E-01  0.35000000000E-01  0.51099999109E-03 0.  1.
       11   -1    0    0    0    0 -0.00000000000E+00 -0.00000000000E+00 -0.34996269501E-01  0.35000000000E-01  0.51099999109E-03 0. -1.
       22    1    1    2    0    0  0.10191073071E-06 -0.10650395066E-06  0.23257318619E-06  0.27535281999E-06  0.00000000000E+00 0. -1.
       22    1    1    2    0    0  0.11075780312E-02  0.57162993226E-03 -0.34977778027E-01  0.34999977794E-01  0.00000000000E+00 0. -1.
       22    1    1    2    0    0 -0.11076799419E-02 -0.57152342831E-03  0.34977545453E-01  0.34999746854E-01  0.00000000000E+00 0.  1.
</event>
<event>
 5   0  0.2463896E+07  0.9118800E+02  0.7546771E-02  0.1180000E+00
      -11   -1    0    0    0    0  0.00000000000E+00  0.00000000000E+00  0.34996269501E-01  0.35000000000E-01  0.51099999109E-03 0.  1.
       11   -1    0    0    0    0 -0.00000000000E+00 -0.00000000000E+00 -0.34996269501E-01  0.35000000000E-01  0.51099999109E-03 0. -1.
       22    1    1    2    0    0 -0.14278794615E-02  0.61224703892E-03  0.34946016156E-01  0.34980533606E-01  0.00000000000E+00 0.  1.
       22    1    1    2    0    0  0.17110093074E-02 -0.77642537831E-03 -0.32046964109E-01  0.32101998346E-01  0.00000000000E+00 0. -1.
       22    1    1    2    0    0 -0.28312984593E-03  0.16417833939E-03 -0.28990520470E-02  0.29174680474E-02  0.00000000000E+00 0.  1.
</event>
<event>
 5   0  0.2463896E+07  0.9118800E+02  0.7546771E-02  0.1180000E+00
      -11   -1    0    0    0    0  0.00000000000E+00  0.00000000000E+00  0.34996269501E-01  0.35000000000E-01  0.51099999109E-03 0.  1.
       11   -1    0    0    0    0 -0.00000000000E+00 -0.00000000000E+00 -0.34996269501E-01  0.35000000000E-01  0.51099999109E-03 0. -1.
       22    1    1    2    0    0  0.43873211636E-02  0.11350081633E-01 -0.23605712315E-01  0.26557533657E-01  0.00000000000E+00 0. -1.
       22    1    1    2    0    0 -0.62279260834E-03 -0.86842664731E-02  0.32379681053E-01  0.33529809124E-01  0.00000000000E+00 0.  1.
       22    1    1    2    0    0 -0.37645285553E-02 -0.26658151600E-02 -0.87739687381E-02  0.99126572184E-02  0.00000000000E+00 0. -1.
</event>
<event>
 5   0  0.2463896E+07  0.9118800E+02  0.7546771E-02  0.1180000E+00
      -11   -1    0    0    0    0  0.00000000000E+00  0.00000000000E+00  0.34996269501E-01  0.35000000000E-01  0.51099999109E-03 0. -1.
       11   -1    0    0    0    0 -0.00000000000E+00 -0.00000000000E+00 -0.34996269501E-01  0.35000000000E-01  0.51099999109E-03 0. -1.
       22    1    1    2    0    0  0.12519702789E-05  0.22276667197E-05  0.11941815603E-04  0.12212161499E-04  0.00000000000E+00 0. -1.
       22    1    1    2    0    0 -0.12520405009E-05 -0.22277916676E-05  0.34988116980E-01  0.34987923025E-01  0.00000000000E+00 0. -1.
       22    1    1    2    0    0  0.70221930064E-10  0.12494789951E-09 -0.35000058796E-01  0.34999864813E-01  0.00000000000E+00 0. -1.
</event>
<event>
 5   0  0.2463896E+07  0.9118800E+02  0.7546771E-02  0.1180000E+00
      -11   -1    0    0    0    0  0.00000000000E+00  0.00000000000E+00  0.34996269501E-01  0.35000000000E-01  0.51099999109E-03 0. -1.
       11   -1    0    0    0    0 -0.00000000000E+00 -0.00000000000E+00 -0.34996269501E-01  0.35000000000E-01  0.51099999109E-03 0.  1.
       22    1    1    2    0    0  0.20227516651E-02 -0.26202344884E-02 -0.34843103086E-01  0.34999985511E-01  0.00000000000E+00 0.  1.
       22    1    1    2    0    0 -0.20227897660E-02  0.26203777631E-02  0.34840444115E-01  0.34997351388E-01  0.00000000000E+00 0. -1.
       22    1    1    2    0    0  0.38100853285E-07 -0.14327469196E-06  0.26589711263E-05  0.26631009675E-05  0.00000000000E+00 0.  1.
</event>
<event>
 5   0  0.2463896E+07  0.9118800E+02  0.7546771E-02  0.1180000E+00
      -11   -1    0    0    0    0  0.00000000000E+00  0.00000000000E+00  0.34996269501E-01  0.35000000000E-01  0.51099999109E-03 0.  1.
       11   -1    0    0    0    0 -0.00000000000E+00 -0.00000000000E+00 -0.34996269501E-01  0.35000000000E-01  0.51099999109E-03 0. -1.
       22    1    1    2    0    0  0.15840800904E-01  0.19038525220E-01  0.24681299832E-01  0.34965168057E-01  0.00000000000E+00 0.  1.
       22    1    1    2    0    0 -0.15855110069E-01 -0.19017631610E-01 -0.24720625952E-01  0.34988057603E-01  0.00000000000E+00 0. -1.
       22    1    1    2    0    0  0.14309165495E-04 -0.20893610050E-04  0.39326119915E-04  0.46774339820E-04  0.00000000000E+00 0. -1.
</event>
<event>
 5   0  0.2463896E+07  0.9118800E+02  0.7546771E-02  0.1180000E+00
      -11   -1    0    0    0    0  0.00000000000E+00  0.00000000000E+00  0.34996269501E-01  0.35000000000E-01  0.51099999109E-03 0. -1.
       11   -1    0    0    0    0 -0.00000000000E+00 -0.00000000000E+00 -0.34996269501E-01  0.35000000000E-01  0.51099999109E-03 0.  1.
       22    1    1    2    0    0 -0.99954862631E-03 -0.34847851839E-02  0.34811615811E-01  0.34999877437E-01  0.00000000000E+00 0. -1.
       22    1    1    2    0    0  0.11771295575E-07  0.10258514816E-07  0.12307928130E-06  0.12406574874E-06  0.00000000000E+00 0.  1.
       22    1    1    2    0    0  0.99953685502E-03  0.34847749254E-02 -0.34811738891E-01  0.34999998497E-01  0.00000000000E+00 0.  1.
</event>
<event>
 5   0  0.2463896E+07  0.9118800E+02  0.7546771E-02  0.1180000E+00
      -11   -1    0    0    0    0  0.00000000000E+00  0.00000000000E+00  0.34996269501E-01  0.35000000000E-01  0.51099999109E-03 0. -1.
       11   -1    0    0    0    0 -0.00000000000E+00 -0.00000000000E+00 -0.34996269501E-01  0.35000000000E-01  0.51099999109E-03 0.  1.
       22    1    1    2    0    0 -0.34720343982E-06  0.11264425427E-05  0.17506090882E-05  0.21104632692E-05  0.00000000000E+00 0. -1.
       22    1    1    2    0    0 -0.31849726178E-01 -0.57924439184E-02  0.13301911470E-01  0.34998547297E-01  0.00000000000E+00 0. -1.
       22    1    1    2    0    0  0.31850073381E-01  0.57913174759E-02 -0.13303662079E-01  0.34999342240E-01  0.00000000000E+00 0.  1.
</event>
<event>
 5   0  0.2463896E+07  0.9118800E+02  0.7546771E-02  0.1180000E+00
      -11   -1    0    0    0    0  0.00000000000E+00  0.00000000000E+00  0.34996269501E-01  0.35000000000E-01  0.51099999109E-03 0.  1.
       11   -1    0    0    0    0 -0.00000000000E+00 -0.00000000000E+00 -0.34996269501E-01  0.35000000000E-01  0.51099999109E-03 0. -1.
       22    1    1    2    0    0  0.93577714915E-02  0.39164546132E-02 -0.59402986156E-02  0.11755579597E-01  0.00000000000E+00 0. -1.
       22    1    1    2    0    0 -0.89582927674E-02 -0.38224218428E-02  0.31351688599E-01  0.32829716661E-01  0.00000000000E+00 0.  1.
       22    1    1    2    0    0 -0.39947872413E-03 -0.94032770453E-04 -0.25411389983E-01  0.25414703742E-01  0.00000000000E+00 0. -1.
</event>
<event>
 5   0  0.2463896E+07  0.9118800E+02  0.7546771E-02  0.1180000E+00
      -11   -1    0    0    0    0  0.00000000000E+00  0.00000000000E+00  0.34996269501E-01  0.35000000000E-01  0.51099999109E-03 0.  1.
       11   -1    0    0    0    0 -0.00000000000E+00 -0.00000000000E+00 -0.34996269501E-01  0.35000000000E-01  0.51099999109E-03 0. -1.
       22    1    1    2    0    0  0.47128259423E-02 -0.74200247810E-02 -0.30806770651E-01  0.32036301504E-01  0.00000000000E+00 0. -1.
       22    1    1    2    0    0 -0.61743521842E-02  0.73751420815E-02  0.33524796966E-01  0.34877318665E-01  0.00000000000E+00 0.  1.
       22    1    1    2    0    0  0.14615262420E-02  0.44882699531E-04 -0.27180263152E-02  0.30863798313E-02  0.00000000000E+00 0. -1.
</event>
<event>
 5   0  0.2463896E+07  0.9118800E+02  0.7546771E-02  0.1180000E+00
      -11   -1    0    0    0    0  0.00000000000E+00  0.00000000000E+00  0.34996269501E-01  0.35000000000E-01  0.51099999109E-03 0. -1.
       11   -1    0    0    0    0 -0.00000000000E+00 -0.00000000000E+00 -0.34996269501E-01  0.35000000000E-01  0.51099999109E-03 0.  1.
       22    1    1    2    0    0  0.95949641718E-02  0.29726455341E-01 -0.15788400456E-01  0.34999986766E-01  0.00000000000E+00 0.  1.
       22    1    1    2    0    0 -0.95949683376E-02 -0.29726455782E-01  0.15788355351E-01  0.34999967935E-01  0.00000000000E+00 0. -1.
       22    1    1    2    0    0  0.41657588814E-08  0.44044104704E-09  0.45105770970E-07  0.45299868766E-07  0.00000000000E+00 0. -1.
</event>
<event>
 5   0  0.2463896E+07  0.9118800E+02  0.7546771E-02  0.1180000E+00
      -11   -1    0    0    0    0  0.00000000000E+00  0.00000000000E+00  0.34996269501E-01  0.35000000000E-01  0.51099999109E-03 0.  1.
       11   -1    0    0    0    0 -0.00000000000E+00 -0.00000000000E+00 -0.34996269501E-01  0.35000000000E-01  0.51099999109E-03 0. -1.
       22    1    1    2    0    0  0.52328349603E-02  0.11968755390E-01 -0.32471006715E-01  0.34999999205E-01  0.00000000000E+00 0. -1.
       22    1    1    2    0    0  0.22273733875E-08  0.97542506267E-09  0.73357308394E-08  0.77282335115E-08  0.00000000000E+00 0. -1.
       22    1    1    2    0    0 -0.52328371877E-02 -0.11968756365E-01  0.32470999379E-01  0.34999993066E-01  0.00000000000E+00 0.  1.
</event>
<event>
 5   0  0.2463896E+07  0.9118800E+02  0.7546771E-02  0.1180000E+00
      -11   -1    0    0    0    0  0.00000000000E+00  0.00000000000E+00  0.34996269501E-01  0.35000000000E-01  0.51099999109E-03 0. -1.
       11   -1    0    0    0    0 -0.00000000000E+00 -0.00000000000E+00 -0.34996269501E-01  0.35000000000E-01  0.51099999109E-03 0.  1.
       22    1    1    2    0    0  0.52781100320E-02  0.75490475887E-04 -0.34599630553E-01  0.34999979696E-01  0.00000000000E+00 0.  1.
       22    1    1    2    0    0  0.16344867924E-07  0.23736060666E-06  0.21331861335E-05  0.21464133554E-05  0.00000000000E+00 0.  1.
       22    1    1    2    0    0 -0.52781263768E-02 -0.75727836494E-04  0.34597497367E-01  0.34997873890E-01  0.00000000000E+00 0. -1.
</event>
<event>
 5   0  0.2463896E+07  0.9118800E+02  0.7546771E-02  0.1180000E+00
      -11   -1    0    0    0    0  0.00000000000E+00  0.00000000000E+00  0.34996269501E-01  0.35000000000E-01  0.51099999109E-03 0. -1.
       11   -1    0    0    0    0 -0.00000000000E+00 -0.00000000000E+00 -0.34996269501E-01  0.35000000000E-01  0.51099999109E-03 0.  1.
       22    1    1    2    0    0 -0.62151943909E-07  0.12008675023E-06  0.82257456996E-06  0.83361418825E-06  0.00000000000E+00 0. -1.
       22    1    1    2    0    0 -0.23407775839E-01 -0.11578292826E-01 -0.23302555495E-01  0.34999856100E-01  0.00000000000E+00 0.  1.
       22    1    1    2    0    0  0.23407837991E-01  0.11578172739E-01  0.23301732920E-01  0.34999310285E-01  0.00000000000E+00 0. -1.
</event>
<event>
 5   0  0.2463896E+07  0.9118800E+02  0.7546771E-02  0.1180000E+00
      -11   -1    0    0    0    0  0.00000000000E+00  0.00000000000E+00  0.34996269501E-01  0.35000000000E-01  0.51099999109E-03 0. -1.
       11   -1    0    0    0    0 -0.00000000000E+00 -0.00000000000E+00 -0.34996269501E-01  0.35000000000E-01  0.51099999109E-03 0.  1.
       22    1    1    2    0    0  0.19446068480E-01 -0.14368075299E-01  0.25306205828E-01  0.34999931722E-01  0.00000000000E+00 0. -1.
       22    1    1    2    0    0  0.32460271837E-07  0.10755963712E-06  0.53112831297E-07  0.12427275499E-06  0.00000000000E+00 0. -1.
       22    1    1    2    0    0 -0.19446100941E-01  0.14367967740E-01 -0.25306258941E-01  0.34999944005E-01  0.00000000000E+00 0.  1.
</event>
<event>
 5   0  0.2463896E+07  0.9118800E+02  0.7546771E-02  0.1180000E+00
      -11   -1    0    0    0    0  0.00000000000E+00  0.00000000000E+00  0.34996269501E-01  0.35000000000E-01  0.51099999109E-03 0.  1.
       11   -1    0    0    0    0 -0.00000000000E+00 -0.00000000000E+00 -0.34996269501E-01  0.35000000000E-01  0.51099999109E-03 0. -1.
       22    1    1    2    0    0  0.34166886614E-02  0.27554728099E-02  0.34723661885E-01  0.34999986950E-01  0.00000000000E+00 0.  1.
       22    1    1    2    0    0 -0.34167122745E-02 -0.27554778203E-02 -0.34723661129E-01  0.34999988899E-01  0.00000000000E+00 0. -1.
       22    1    1    2    0    0  0.23613173639E-07  0.50104216741E-08 -0.75594427675E-09  0.24150729729E-07  0.00000000000E+00 0.  1.
</event>
<event>
 5   0  0.2463896E+07  0.9118800E+02  0.7546771E-02  0.1180000E+00
      -11   -1    0    0    0    0  0.00000000000E+00  0.00000000000E+00  0.34996269501E-01  0.35000000000E-01  0.51099999109E-03 0. -1.
       11   -1    0    0    0    0 -0.00000000000E+00 -0.00000000000E+00 -0.34996269501E-01  0.35000000000E-01  0.51099999109E-03 0.  1.
       22    1    1    2    0    0 -0.85925078352E-02  0.39078132936E-02  0.33702907529E-01  0.34999831022E-01  0.00000000000E+00 0. -1.
       22    1    1    2    0    0 -0.60123935053E-08 -0.33958800355E-08  0.17153826332E-06  0.17167718736E-06  0.00000000000E+00 0. -1.
       22    1    1    2    0    0  0.85925138475E-02 -0.39078098977E-02 -0.33703079068E-01  0.34999997301E-01  0.00000000000E+00 0.  1.
</event>
<event>
 5   0  0.2463896E+07  0.9118800E+02  0.7546771E-02  0.1180000E+00
      -11   -1    0    0    0    0  0.00000000000E+00  0.00000000000E+00  0.34996269501E-01  0.35000000000E-01  0.51099999109E-03 0. -1.
       11   -1    0    0    0    0 -0.00000000000E+00 -0.00000000000E+00 -0.34996269501E-01  0.35000000000E-01  0.51099999109E-03 0. -1.
       22    1    1    2    0    0  0.11574170837E-02 -0.37120695503E-03  0.22872186566E-02  0.25901309025E-02  0.00000000000E+00 0.  1.
       22    1    1    2    0    0 -0.10778779904E-02 -0.23654947265E-03 -0.34836921657E-01  0.34854395521E-01  0.00000000000E+00 0. -1.
       22    1    1    2    0    0 -0.79539093312E-04  0.60775642768E-03  0.32549703000E-01  0.32555473576E-01  0.00000000000E+00 0. -1.
</event>
<event>
 5   0  0.2463896E+07  0.9118800E+02  0.7546771E-02  0.1180000E+00
      -11   -1    0    0    0    0  0.00000000000E+00  0.00000000000E+00  0.34996269501E-01  0.35000000000E-01  0.51099999109E-03 0.  1.
       11   -1    0    0    0    0 -0.00000000000E+00 -0.00000000000E+00 -0.34996269501E-01  0.35000000000E-01  0.51099999109E-03 0. -1.
       22    1    1    2    0    0  0.28482071228E-02 -0.53072449948E-02 -0.12862554337E-01  0.14202972834E-01  0.00000000000E+00 0. -1.
       22    1    1    2    0    0 -0.83790860563E-02  0.85850470625E-02  0.32759622243E-01  0.34887031484E-01  0.00000000000E+00 0.  1.
       22    1    1    2    0    0  0.55308789335E-02 -0.32778020676E-02 -0.19897067907E-01  0.20909995683E-01  0.00000000000E+00 0. -1.
</event>
<event>
 5   0  0.2463896E+07  0.9118800E+02  0.7546771E-02  0.1180000E+00
      -11   -1    0    0    0    0  0.00000000000E+00  0.00000000000E+00  0.34996269501E-01  0.35000000000E-01  0.51099999109E-03 0.  1.
       11   -1    0    0    0    0 -0.00000000000E+00 -0.00000000000E+00 -0.34996269501E-01  0.35000000000E-01  0.51099999109E-03 0. -1.
       22    1    1    2    0    0 -0.77502488600E-05 -0.67303717864E-05  0.10582535019E-03  0.10632200621E-03  0.00000000000E+00 0.  1.
       22    1    1    2    0    0 -0.91324316772E-02 -0.40515074614E-02  0.33433910862E-01  0.34894733365E-01  0.00000000000E+00 0.  1.
       22    1    1    2    0    0  0.91401819260E-02  0.40582378332E-02 -0.33539736212E-01  0.34998944629E-01  0.00000000000E+00 0. -1.
</event>
<event>
 5   0  0.2463896E+07  0.9118800E+02  0.7546771E-02  0.1180000E+00
      -11   -1    0    0    0    0  0.00000000000E+00  0.00000000000E+00  0.34996269501E-01  0.35000000000E-01  0.51099999109E-03 0. -1.
       11   -1    0    0    0    0 -0.00000000000E+00 -0.00000000000E+00 -0.34996269501E-01  0.35000000000E-01  0.51099999109E-03 0.  1.
       22    1    1    2    0    0  0.46557344391E-02  0.52508047687E-03 -0.34684987703E-01  0.34999999209E-01  0.00000000000E+00 0.  1.
       22    1    1    2    0    0 -0.92013514026E-06 -0.22517769711E-06  0.63840740168E-05  0.64539720114E-05  0.00000000000E+00 0.  1.
       22    1    1    2    0    0 -0.46548143040E-02 -0.52485529917E-03  0.34678603629E-01  0.34993546819E-01  0.00000000000E+00 0. -1.
</event>
<event>
 5   0  0.2463896E+07  0.9118800E+02  0.7546771E-02  0.1180000E+00
      -11   -1    0    0    0    0  0.00000000000E+00  0.00000000000E+00  0.34996269501E-01  0.35000000000E-01  0.51099999109E-03 0.  1.
       11   -1    0    0    0    0 -0.00000000000E+00 -0.00000000000E+00 -0.34996269501E-01  0.35000000000E-01  0.51099999109E-03 0. -1.
       22    1    1    2    0    0 -0.24457140752E-01  0.83446182301E-02 -0.23605372792E-01  0.34999971598E-01  0.00000000000E+00 0. -1.
       22    1    1    2    0    0  0.45700709674E-07 -0.14067385637E-06  0.50378621181E-07  0.15625522137E-06  0.00000000000E+00 0. -1.
       22    1    1    2    0    0  0.24457095052E-01 -0.83444775562E-02  0.23605322414E-01  0.34999872147E-01  0.00000000000E+00 0.  1.
</event>
<event>
 5   0  0.2463896E+07  0.9118800E+02  0.7546771E-02  0.1180000E+00
      -11   -1    0    0    0    0  0.00000000000E+00  0.00000000000E+00  0.34996269501E-01  0.35000000000E-01  0.51099999109E-03 0.  1.
       11   -1    0    0    0    0 -0.00000000000E+00 -0.00000000000E+00 -0.34996269501E-01  0.35000000000E-01  0.51099999109E-03 0. -1.
       22    1    1    2    0    0 -0.99729834421E-04 -0.49895243019E-04  0.15565082694E-02  0.15604978590E-02  0.00000000000E+00 0.  1.
       22    1    1    2    0    0  0.95612575887E-03  0.13015987651E-02  0.33405548173E-01  0.33444565845E-01  0.00000000000E+00 0.  1.
       22    1    1    2    0    0 -0.85639592445E-03 -0.12517035220E-02 -0.34962056442E-01  0.34994936296E-01  0.00000000000E+00 0. -1.
</event>
<event>
 5   0  0.2463896E+07  0.9118800E+02  0.7546771E-02  0.1180000E+00
      -11   -1    0    0    0    0  0.00000000000E+00  0.00000000000E+00  0.34996269501E-01  0.35000000000E-01  0.51099999109E-03 0.  1.
       11   -1    0    0    0    0 -0.00000000000E+00 -0.00000000000E+00 -0.34996269501E-01  0.35000000000E-01  0.51099999109E-03 0. -1.
       22    1    1    2    0    0 -0.85024732683E-04  0.18867414229E-02 -0.34776790499E-01  0.34828037266E-01  0.00000000000E+00 0. -1.
       22    1    1    2    0    0 -0.17187120154E-03 -0.17581461106E-03 -0.90337157919E-04  0.26193756791E-03  0.00000000000E+00 0.  1.
       22    1    1    2    0    0  0.25689593423E-03 -0.17109268118E-02  0.34867127657E-01  0.34910025166E-01  0.00000000000E+00 0.  1.
</event>
<event>
 5   0  0.2463896E+07  0.9118800E+02  0.7546771E-02  0.1180000E+00
      -11   -1    0    0    0    0  0.00000000000E+00  0.00000000000E+00  0.34996269501E-01  0.35000000000E-01  0.51099999109E-03 0. -1.
       11   -1    0    0    0    0 -0.00000000000E+00 -0.00000000000E+00 -0.34996269501E-01  0.35000000000E-01  0.51099999109E-03 0.  1.
       22    1    1    2    0    0  0.37985334865E-02 -0.45590556953E-02  0.34493155855E-01  0.34999880661E-01  0.00000000000E+00 0. -1.
       22    1    1    2    0    0 -0.64544181282E-08 -0.14575924672E-07  0.11907028039E-06  0.12013262990E-06  0.00000000000E+00 0. -1.
       22    1    1    2    0    0 -0.37985270320E-02  0.45590702712E-02 -0.34493274925E-01  0.34999999206E-01  0.00000000000E+00 0.  1.
</event>
<event>
 5   0  0.2463896E+07  0.9118800E+02  0.7546771E-02  0.1180000E+00
      -11   -1    0    0    0    0  0.00000000000E+00  0.00000000000E+00  0.34996269501E-01  0.35000000000E-01  0.51099999109E-03 0.  1.
       11   -1    0    0    0    0 -0.00000000000E+00 -0.00000000000E+00 -0.34996269501E-01  0.35000000000E-01  0.51099999109E-03 0. -1.
       22    1    1    2    0    0 -0.19382461999E-02 -0.95608866701E-03 -0.34932745568E-01  0.34999537379E-01  0.00000000000E+00 0. -1.
       22    1    1    2    0    0 -0.51964733519E-05  0.94822159710E-05  0.38486628079E-03  0.38501814223E-03  0.00000000000E+00 0. -1.
       22    1    1    2    0    0  0.19434426732E-02  0.94660645104E-03  0.34547879287E-01  0.34615444478E-01  0.00000000000E+00 0.  1.
</event>
<event>
 5   0  0.2463896E+07  0.9118800E+02  0.7546771E-02  0.1180000E+00
      -11   -1    0    0    0    0  0.00000000000E+00  0.00000000000E+00  0.34996269501E-01  0.35000000000E-01  0.51099999109E-03 0. -1.
       11   -1    0    0    0    0 -0.00000000000E+00 -0.00000000000E+00 -0.34996269501E-01  0.35000000000E-01  0.51099999109E-03 0.  1.
       22    1    1    2    0    0  0.28324999787E-01 -0.16301523582E-01 -0.12506018708E-01  0.34992081789E-01  0.00000000000E+00 0.  1.
       22    1    1    2    0    0  0.43041115924E-05 -0.45425932386E-05  0.13822317255E-04  0.15172902960E-04  0.00000000000E+00 0. -1.
       22    1    1    2    0    0 -0.28329303899E-01  0.16306066176E-01  0.12492196391E-01  0.34992745308E-01  0.00000000000E+00 0. -1.
</event>
<event>
 5   0  0.2463896E+07  0.9118800E+02  0.7546771E-02  0.1180000E+00
      -11   -1    0    0    0    0  0.00000000000E+00  0.00000000000E+00  0.34996269501E-01  0.35000000000E-01  0.51099999109E-03 0.  1.
       11   -1    0    0    0    0 -0.00000000000E+00 -0.00000000000E+00 -0.34996269501E-01  0.35000000000E-01  0.51099999109E-03 0. -1.
       22    1    1    2    0    0  0.71730271262E-03 -0.81296515273E-03 -0.32625716736E-01  0.32643725707E-01  0.00000000000E+00 0. -1.
       22    1    1    2    0    0  0.19096925450E-02 -0.61698019917E-02  0.36146841495E-02  0.74013055425E-02  0.00000000000E+00 0. -1.
       22    1    1    2    0    0 -0.26269952576E-02  0.69827671444E-02  0.29011032587E-01  0.29954968750E-01  0.00000000000E+00 0.  1.
</event>
<event>
 5   0  0.2463896E+07  0.9118800E+02  0.7546771E-02  0.1180000E+00
      -11   -1    0    0    0    0  0.00000000000E+00  0.00000000000E+00  0.34996269501E-01  0.35000000000E-01  0.51099999109E-03 0. -1.
       11   -1    0    0    0    0 -0.00000000000E+00 -0.00000000000E+00 -0.34996269501E-01  0.35000000000E-01  0.51099999109E-03 0.  1.
       22    1    1    2    0    0 -0.21184215647E-02 -0.62012019632E-02  0.10816152919E-01  0.12646413708E-01  0.00000000000E+00 0. -1.
       22    1    1    2    0    0 -0.51642514233E-02 -0.62068314816E-02  0.20965766813E-01  0.22466811697E-01  0.00000000000E+00 0. -1.
       22    1    1    2    0    0  0.72826729880E-02  0.12408033445E-01 -0.31781919731E-01  0.34886774595E-01  0.00000000000E+00 0.  1.
</event>
<event>
 5   0  0.2463896E+07  0.9118800E+02  0.7546771E-02  0.1180000E+00
      -11   -1    0    0    0    0  0.00000000000E+00  0.00000000000E+00  0.34996269501E-01  0.35000000000E-01  0.51099999109E-03 0. -1.
       11   -1    0    0    0    0 -0.00000000000E+00 -0.00000000000E+00 -0.34996269501E-01  0.35000000000E-01  0.51099999109E-03 0.  1.
       22    1    1    2    0    0  0.17050672107E-01 -0.24102180627E-01 -0.18797664547E-01  0.34999896039E-01  0.00000000000E+00 0.  1.
       22    1    1    2    0    0  0.12213705495E-07 -0.86036171102E-07  0.27983525913E-06  0.29301735373E-06  0.00000000000E+00 0. -1.
       22    1    1    2    0    0 -0.17050684321E-01  0.24102266663E-01  0.18797384712E-01  0.34999810944E-01  0.00000000000E+00 0. -1.
</event>
<event>
 5   0  0.2463896E+07  0.9118800E+02  0.7546771E-02  0.1180000E+00
      -11   -1    0    0    0    0  0.00000000000E+00  0.00000000000E+00  0.34996269501E-01  0.35000000000E-01  0.51099999109E-03 0. -1.
       11   -1    0    0    0    0 -0.00000000000E+00 -0.00000000000E+00 -0.34996269501E-01  0.35000000000E-01  0.51099999109E-03 0.  1.
       22    1    1    2    0    0 -0.11870463712E-02  0.23667571485E-02 -0.34801842596E-01  0.34902419208E-01  0.00000000000E+00 0.  1.
       22    1    1    2    0    0  0.12284915875E-04  0.18045320108E-03 -0.20007688367E-05  0.18088195049E-03  0.00000000000E+00 0. -1.
       22    1    1    2    0    0  0.11747614554E-02 -0.25472103496E-02  0.34803843365E-01  0.34916698842E-01  0.00000000000E+00 0. -1.
</event>
<event>
 5   0  0.2463896E+07  0.9118800E+02  0.7546771E-02  0.1180000E+00
      -11   -1    0    0    0    0  0.00000000000E+00  0.00000000000E+00  0.34996269501E-01  0.35000000000E-01  0.51099999109E-03 0.  1.
       11   -1    0    0    0    0 -0.00000000000E+00 -0.00000000000E+00 -0.34996269501E-01  0.35000000000E-01  0.51099999109E-03 0. -1.
       22    1    1    2    0    0  0.30698083495E-03 -0.12408183830E-02 -0.34976213149E-01  0.34999562194E-01  0.00000000000E+00 0. -1.
       22    1    1    2    0    0  0.10180603714E-04 -0.38056674081E-05  0.10132184435E-03  0.10190311055E-03  0.00000000000E+00 0.  1.
       22    1    1    2    0    0 -0.31716143866E-03  0.12446240504E-02  0.34874891305E-01  0.34898534696E-01  0.00000000000E+00 0.  1.
</event>
<event>
 5   0  0.2463896E+07  0.9118800E+02  0.7546771E-02  0.1180000E+00
      -11   -1    0    0    0    0  0.00000000000E+00  0.00000000000E+00  0.34996269501E-01  0.35000000000E-01  0.51099999109E-03 0. -1.
       11   -1    0    0    0    0 -0.00000000000E+00 -0.00000000000E+00 -0.34996269501E-01  0.35000000000E-01  0.51099999109E-03 0.  1.
       22    1    1    2    0    0 -0.46838204005E-07  0.93126003180E-08  0.59737735258E-06  0.59928310776E-06  0.00000000000E+00 0.  1.
       22    1    1    2    0    0 -0.23965885293E-02  0.12137375527E-02 -0.34896747021E-01  0.34999996401E-01  0.00000000000E+00 0.  1.
       22    1    1    2    0    0  0.23966353675E-02 -0.12137468653E-02  0.34896149643E-01  0.34999404316E-01  0.00000000000E+00 0. -1.
</event>
<event>
 5   0  0.2463896E+07  0.9118800E+02  0.7546771E-02  0.1180000E+00
      -11   -1    0    0    0    0  0.00000000000E+00  0.00000000000E+00  0.34996269501E-01  0.35000000000E-01  0.51099999109E-03 0. -1.
       11   -1    0    0    0    0 -0.00000000000E+00 -0.00000000000E+00 -0.34996269501E-01  0.35000000000E-01  0.51099999109E-03 0.  1.
       22    1    1    2    0    0  0.13416945866E-04 -0.41821076499E-04 -0.91031889381E-05  0.44854040228E-04  0.00000000000E+00 0.  1.
       22    1    1    2    0    0 -0.42515733737E-02  0.23492135127E-02  0.34645427462E-01  0.34984286820E-01  0.00000000000E+00 0. -1.
       22    1    1    2    0    0  0.42381564279E-02 -0.23073924362E-02 -0.34636324274E-01  0.34970859139E-01  0.00000000000E+00 0.  1.
</event>
<event>
 5   0  0.2463896E+07  0.9118800E+02  0.7546771E-02  0.1180000E+00
      -11   -1    0    0    0    0  0.00000000000E+00  0.00000000000E+00  0.34996269501E-01  0.35000000000E-01  0.51099999109E-03 0. -1.
       11   -1    0    0    0    0 -0.00000000000E+00 -0.00000000000E+00 -0.34996269501E-01  0.35000000000E-01  0.51099999109E-03 0.  1.
       22    1    1    2    0    0 -0.44047202899E-02  0.34065779727E-01  0.67171872466E-02  0.34999993053E-01  0.00000000000E+00 0. -1.
       22    1    1    2    0    0 -0.48818017886E-08 -0.32562672584E-08  0.12718987417E-07  0.14007423249E-07  0.00000000000E+00 0. -1.
       22    1    1    2    0    0  0.44047251717E-02 -0.34065776470E-01 -0.67171999656E-02  0.34999992939E-01  0.00000000000E+00 0.  1.
</event>
<event>
 5   0  0.2463896E+07  0.9118800E+02  0.7546771E-02  0.1180000E+00
      -11   -1    0    0    0    0  0.00000000000E+00  0.00000000000E+00  0.34996269501E-01  0.35000000000E-01  0.51099999109E-03 0.  1.
       11   -1    0    0    0    0 -0.00000000000E+00 -0.00000000000E+00 -0.34996269501E-01  0.35000000000E-01  0.51099999109E-03 0. -1.
       22    1    1    2    0    0  0.14431390797E-03 -0.15570257719E-03  0.62404675110E-02  0.62440775581E-02  0.00000000000E+00 0.  1.
       22    1    1    2    0    0 -0.23549625045E-02 -0.28643787566E-02  0.28537365657E-01  0.28777278410E-01  0.00000000000E+00 0.  1.
       22    1    1    2    0    0  0.22106485966E-02  0.30200813338E-02 -0.34777833168E-01  0.34978644032E-01  0.00000000000E+00 0. -1.
</event>
<event>
 5   0  0.2463896E+07  0.9118800E+02  0.7546771E-02  0.1180000E+00
      -11   -1    0    0    0    0  0.00000000000E+00  0.00000000000E+00  0.34996269501E-01  0.35000000000E-01  0.51099999109E-03 0. -1.
       11   -1    0    0    0    0 -0.00000000000E+00 -0.00000000000E+00 -0.34996269501E-01  0.35000000000E-01  0.51099999109E-03 0.  1.
       22    1    1    2    0    0 -0.11531210633E-03  0.40133871995E-03 -0.28586984839E-03  0.50605456249E-03  0.00000000000E+00 0. -1.
       22    1    1    2    0    0  0.79076437414E-02  0.27881328118E-02  0.33858671962E-01  0.34881430320E-01  0.00000000000E+00 0. -1.
       22    1    1    2    0    0 -0.77923316350E-02 -0.31894715317E-02 -0.33572802114E-01  0.34612515117E-01  0.00000000000E+00 0.  1.
</event>
