<event>
 5   0  0.1112929E+08  0.9118800E+02  0.7546771E-02  0.1180000E+00
      -11   -1    0    0    0    0  0.00000000000E+00  0.00000000000E+00  0.34996269501E-01  0.35000000000E-01  0.51099999109E-03 0.  1.
       11   -1    0    0    0    0 -0.00000000000E+00 -0.00000000000E+00 -0.34996269501E-01  0.35000000000E-01  0.51099999109E-03 0.  1.
       22    1    1    2    0    0  0.18180890614E-02  0.52036745614E-03 -0.10530691244E-01  0.10699144274E-01  0.00000000000E+00 0. -1.
       22    1    1    2    0    0  0.24633128924E-03 -0.15077192965E-03 -0.24352732056E-01  0.24354444560E-01  0.00000000000E+00 0.  1.
       22    1    1    2    0    0 -0.20644203506E-02 -0.36959552650E-03  0.34883423300E-01  0.34946411165E-01  0.00000000000E+00 0.  1.
</event>
<event>
 5   0  0.1144045E+08  0.9118800E+02  0.7546771E-02  0.1180000E+00
      -11   -1    0    0    0    0  0.00000000000E+00  0.00000000000E+00  0.34996269501E-01  0.35000000000E-01  0.51099999109E-03 0.  1.
       11   -1    0    0    0    0 -0.00000000000E+00 -0.00000000000E+00 -0.34996269501E-01  0.35000000000E-01  0.51099999109E-03 0. -1.
       22    1    1    2    0    0 -0.18536434478E-03  0.16335915303E-02  0.34960384850E-01  0.34999021274E-01  0.00000000000E+00 0.  1.
       22    1    1    2    0    0  0.13077321674E-07 -0.39971472404E-07  0.97978346177E-06  0.98068566162E-06  0.00000000000E+00 0. -1.
       22    1    1    2    0    0  0.18535126746E-03 -0.16335515588E-02 -0.34961364634E-01  0.34999998041E-01  0.00000000000E+00 0. -1.
</event>
<event>
 5   0  0.1112929E+08  0.9118800E+02  0.7546771E-02  0.1180000E+00
      -11   -1    0    0    0    0  0.00000000000E+00  0.00000000000E+00  0.34996269501E-01  0.35000000000E-01  0.51099999109E-03 0. -1.
       11   -1    0    0    0    0 -0.00000000000E+00 -0.00000000000E+00 -0.34996269501E-01  0.35000000000E-01  0.51099999109E-03 0.  1.
       22    1    1    2    0    0 -0.11940650405E-02 -0.36392745384E-03  0.34963210972E-01  0.34985487791E-01  0.00000000000E+00 0. -1.
       22    1    1    2    0    0 -0.98332049091E-06  0.27479252711E-06  0.14483494813E-04  0.14519437046E-04  0.00000000000E+00 0.  1.
       22    1    1    2    0    0  0.11950483610E-02  0.36365266132E-03 -0.34977694467E-01  0.34999992772E-01  0.00000000000E+00 0.  1.
</event>
<event>
 5   0  0.1112929E+08  0.9118800E+02  0.7546771E-02  0.1180000E+00
      -11   -1    0    0    0    0  0.00000000000E+00  0.00000000000E+00  0.34996269501E-01  0.35000000000E-01  0.51099999109E-03 0.  1.
       11   -1    0    0    0    0 -0.00000000000E+00 -0.00000000000E+00 -0.34996269501E-01  0.35000000000E-01  0.51099999109E-03 0. -1.
       22    1    1    2    0    0 -0.62132354767E-04 -0.33560422476E-04 -0.85026717606E-03  0.85319458634E-03  0.00000000000E+00 0. -1.
       22    1    1    2    0    0  0.13349375097E-02  0.10643154241E-01 -0.32448512560E-01  0.34175499378E-01  0.00000000000E+00 0. -1.
       22    1    1    2    0    0 -0.12728051549E-02 -0.10609593819E-01  0.33298779736E-01  0.34971306036E-01  0.00000000000E+00 0.  1.
</event>
<event>
 5   0  0.1112929E+08  0.9118800E+02  0.7546771E-02  0.1180000E+00
      -11   -1    0    0    0    0  0.00000000000E+00  0.00000000000E+00  0.34996269501E-01  0.35000000000E-01  0.51099999109E-03 0. -1.
       11   -1    0    0    0    0 -0.00000000000E+00 -0.00000000000E+00 -0.34996269501E-01  0.35000000000E-01  0.51099999109E-03 0.  1.
       22    1    1    2    0    0 -0.10738836042E-07 -0.47982921846E-09  0.40101249689E-07  0.41517021356E-07  0.00000000000E+00 0.  1.
       22    1    1    2    0    0 -0.17727798751E-01 -0.80136250566E-02  0.29094744385E-01  0.34999959799E-01  0.00000000000E+00 0.  1.
       22    1    1    2    0    0  0.17727809490E-01  0.80136255365E-02 -0.29094784487E-01  0.34999998684E-01  0.00000000000E+00 0. -1.
</event>
<event>
 5   0  0.1112929E+08  0.9118800E+02  0.7546771E-02  0.1180000E+00
      -11   -1    0    0    0    0  0.00000000000E+00  0.00000000000E+00  0.34996269501E-01  0.35000000000E-01  0.51099999109E-03 0. -1.
       11   -1    0    0    0    0 -0.00000000000E+00 -0.00000000000E+00 -0.34996269501E-01  0.35000000000E-01  0.51099999109E-03 0. -1.
       22    1    1    2    0    0 -0.00000000000E+00 -0.00000000000E+00  0.88174974256E-02  0.88166313600E-02  0.00000000000E+00 0. -1.
       22    1    1    2    0    0  0.13891308494E-01  0.23907519189E-01 -0.16862560955E-01  0.32386476922E-01  0.00000000000E+00 0. -1.
       22    1    1    2    0    0 -0.13891308494E-01 -0.23907519189E-01  0.80450635299E-02  0.28796891718E-01  0.00000000000E+00 0.  1.
</event>
<event>
 5   0  0.1112929E+08  0.9118800E+02  0.7546771E-02  0.1180000E+00
      -11   -1    0    0    0    0  0.00000000000E+00  0.00000000000E+00  0.34996269501E-01  0.35000000000E-01  0.51099999109E-03 0.  1.
       11   -1    0    0    0    0 -0.00000000000E+00 -0.00000000000E+00 -0.34996269501E-01  0.35000000000E-01  0.51099999109E-03 0. -1.
       22    1    1    2    0    0  0.22769577458E-02  0.49344091884E-02  0.33326584638E-01  0.33766761382E-01  0.00000000000E+00 0.  1.
       22    1    1    2    0    0 -0.51213704131E-02 -0.80260203827E-02 -0.27084191140E-01  0.28708863575E-01  0.00000000000E+00 0. -1.
       22    1    1    2    0    0  0.28444126673E-02  0.30916111943E-02 -0.62423934982E-02  0.75243750428E-02  0.00000000000E+00 0. -1.
</event>
<event>
 5   0  0.1112929E+08  0.9118800E+02  0.7546771E-02  0.1180000E+00
      -11   -1    0    0    0    0  0.00000000000E+00  0.00000000000E+00  0.34996269501E-01  0.35000000000E-01  0.51099999109E-03 0.  1.
       11   -1    0    0    0    0 -0.00000000000E+00 -0.00000000000E+00 -0.34996269501E-01  0.35000000000E-01  0.51099999109E-03 0. -1.
       22    1    1    2    0    0 -0.46506042278E-03 -0.60766373599E-02  0.34441140390E-01  0.34976191247E-01  0.00000000000E+00 0.  1.
       22    1    1    2    0    0  0.65510747517E-05  0.11619473934E-04  0.23260920760E-04  0.26814160242E-04  0.00000000000E+00 0. -1.
       22    1    1    2    0    0  0.45850934803E-03  0.60650178860E-02 -0.34464401311E-01  0.34996994592E-01  0.00000000000E+00 0. -1.
</event>
<event>
 5   0  0.1112929E+08  0.9118800E+02  0.7546771E-02  0.1180000E+00
      -11   -1    0    0    0    0  0.00000000000E+00  0.00000000000E+00  0.34996269501E-01  0.35000000000E-01  0.51099999109E-03 0.  1.
       11   -1    0    0    0    0 -0.00000000000E+00 -0.00000000000E+00 -0.34996269501E-01  0.35000000000E-01  0.51099999109E-03 0. -1.
       22    1    1    2    0    0 -0.21804495075E-02 -0.15983237347E-02 -0.34895262912E-01  0.34999833893E-01  0.00000000000E+00 0. -1.
       22    1    1    2    0    0 -0.23194444142E-05 -0.14680147256E-06  0.33637463540E-04  0.33717656005E-04  0.00000000000E+00 0.  1.
       22    1    1    2    0    0  0.21827689519E-02  0.15984705361E-02  0.34861625449E-01  0.34966448451E-01  0.00000000000E+00 0.  1.
</event>
<event>
 5   0  0.1112929E+08  0.9118800E+02  0.7546771E-02  0.1180000E+00
      -11   -1    0    0    0    0  0.00000000000E+00  0.00000000000E+00  0.34996269501E-01  0.35000000000E-01  0.51099999109E-03 0.  1.
       11   -1    0    0    0    0 -0.00000000000E+00 -0.00000000000E+00 -0.34996269501E-01  0.35000000000E-01  0.51099999109E-03 0. -1.
       22    1    1    2    0    0  0.78230254902E-02  0.29413797386E-01  0.15093489563E-01  0.33973292918E-01  0.00000000000E+00 0.  1.
       22    1    1    2    0    0 -0.75701912872E-02 -0.29499902114E-01 -0.16470442656E-01  0.34624088467E-01  0.00000000000E+00 0. -1.
       22    1    1    2    0    0 -0.25283420303E-03  0.86104727854E-04  0.13769530936E-02  0.14026186154E-02  0.00000000000E+00 0. -1.
</event>
