<event>
 5   0  0.3490748E+06  0.9118800E+02  0.7546771E-02  0.1180000E+00
      -11   -1    0    0    0    0  0.00000000000E+00  0.00000000000E+00  0.34996269501E-01  0.35000000000E-01  0.51099999109E-03 0. -1.
       11   -1    0    0    0    0 -0.00000000000E+00 -0.00000000000E+00 -0.34996269501E-01  0.35000000000E-01  0.51099999109E-03 0.  1.
       22    1    1    2    0    0 -0.42659341274E-06 -0.23123778864E-06  0.94807308322E-06  0.10650330632E-05  0.00000000000E+00 0.  1.
       22    1    1    2    0    0 -0.16353635483E-02 -0.43818949618E-06 -0.34961704166E-01  0.34999931033E-01  0.00000000000E+00 0.  1.
       22    1    1    2    0    0  0.16357901417E-02  0.66942728482E-06  0.34960756092E-01  0.34999003934E-01  0.00000000000E+00 0. -1.
</event>
<event>
 5   0  0.3490748E+06  0.9118800E+02  0.7546771E-02  0.1180000E+00
      -11   -1    0    0    0    0  0.00000000000E+00  0.00000000000E+00  0.34996269501E-01  0.35000000000E-01  0.51099999109E-03 0. -1.
       11   -1    0    0    0    0 -0.00000000000E+00 -0.00000000000E+00 -0.34996269501E-01  0.35000000000E-01  0.51099999109E-03 0.  1.
       22    1    1    2    0    0 -0.11276330375E-02  0.65361819412E-03 -0.34244458706E-02  0.36640964141E-02  0.00000000000E+00 0.  1.
       22    1    1    2    0    0  0.61690127906E-03 -0.21563814614E-02 -0.31397648257E-01  0.31477656588E-01  0.00000000000E+00 0.  1.
       22    1    1    2    0    0  0.51073175844E-03  0.15027632673E-02  0.34822094127E-01  0.34858246998E-01  0.00000000000E+00 0. -1.
</event>
<event>
 5   0  0.3490748E+06  0.9118800E+02  0.7546771E-02  0.1180000E+00
      -11   -1    0    0    0    0  0.00000000000E+00  0.00000000000E+00  0.34996269501E-01  0.35000000000E-01  0.51099999109E-03 0.  1.
       11   -1    0    0    0    0 -0.00000000000E+00 -0.00000000000E+00 -0.34996269501E-01  0.35000000000E-01  0.51099999109E-03 0.  1.
       22    1    1    2    0    0 -0.40677771330E-03 -0.36899331433E-03  0.34992634462E-01  0.34996944020E-01  0.00000000000E+00 0.  1.
       22    1    1    2    0    0  0.41040346049E-03  0.37092136480E-03 -0.34994265390E-01  0.34998637457E-01  0.00000000000E+00 0.  1.
       22    1    1    2    0    0 -0.36257471945E-05 -0.19280504692E-05  0.16309278609E-05  0.44185231716E-05  0.00000000000E+00 0. -1.
</event>
<event>
 5   0  0.3490748E+06  0.9118800E+02  0.7546771E-02  0.1180000E+00
      -11   -1    0    0    0    0  0.00000000000E+00  0.00000000000E+00  0.34996269501E-01  0.35000000000E-01  0.51099999109E-03 0.  1.
       11   -1    0    0    0    0 -0.00000000000E+00 -0.00000000000E+00 -0.34996269501E-01  0.35000000000E-01  0.51099999109E-03 0. -1.
       22    1    1    2    0    0  0.38972214907E-02 -0.80072094060E-02 -0.33848133911E-01  0.34999998673E-01  0.00000000000E+00 0. -1.
       22    1    1    2    0    0 -0.38972221427E-02  0.80072088936E-02  0.33848052034E-01  0.34999919445E-01  0.00000000000E+00 0.  1.
       22    1    1    2    0    0  0.65191227701E-09  0.51237475431E-09  0.81877429103E-07  0.81881627451E-07  0.00000000000E+00 0. -1.
</event>
<event>
 5   0  0.3490748E+06  0.9118800E+02  0.7546771E-02  0.1180000E+00
      -11   -1    0    0    0    0  0.00000000000E+00  0.00000000000E+00  0.34996269501E-01  0.35000000000E-01  0.51099999109E-03 0.  1.
       11   -1    0    0    0    0 -0.00000000000E+00 -0.00000000000E+00 -0.34996269501E-01  0.35000000000E-01  0.51099999109E-03 0. -1.
       22    1    1    2    0    0 -0.13727987453E-05  0.23598815969E-06  0.14516232591E-04  0.14582910390E-04  0.00000000000E+00 0. -1.
       22    1    1    2    0    0  0.48426274421E-02 -0.46795129042E-02  0.34331473915E-01  0.34985696831E-01  0.00000000000E+00 0.  1.
       22    1    1    2    0    0 -0.48412546433E-02  0.46792769161E-02 -0.34345990148E-01  0.34999720259E-01  0.00000000000E+00 0. -1.
</event>
<event>
 5   0  0.3490748E+06  0.9118800E+02  0.7546771E-02  0.1180000E+00
      -11   -1    0    0    0    0  0.00000000000E+00  0.00000000000E+00  0.34996269501E-01  0.35000000000E-01  0.51099999109E-03 0.  1.
       11   -1    0    0    0    0 -0.00000000000E+00 -0.00000000000E+00 -0.34996269501E-01  0.35000000000E-01  0.51099999109E-03 0. -1.
       22    1    1    2    0    0 -0.25679807337E-08  0.27834112060E-08  0.29740529301E-07  0.29980676879E-07  0.00000000000E+00 0.  1.
       22    1    1    2    0    0 -0.58631915867E-02 -0.87084670606E-02  0.33388374515E-01  0.34999970955E-01  0.00000000000E+00 0.  1.
       22    1    1    2    0    0  0.58631941547E-02  0.87084642772E-02 -0.33388404255E-01  0.34999999064E-01  0.00000000000E+00 0. -1.
</event>
<event>
 5   0  0.3490748E+06  0.9118800E+02  0.7546771E-02  0.1180000E+00
      -11   -1    0    0    0    0  0.00000000000E+00  0.00000000000E+00  0.34996269501E-01  0.35000000000E-01  0.51099999109E-03 0.  1.
       11   -1    0    0    0    0 -0.00000000000E+00 -0.00000000000E+00 -0.34996269501E-01  0.35000000000E-01  0.51099999109E-03 0. -1.
       22    1    1    2    0    0  0.24740431083E-01  0.10513798939E-01 -0.22396893096E-01  0.34989280054E-01  0.00000000000E+00 0. -1.
       22    1    1    2    0    0 -0.44898154776E-05 -0.29449926014E-04 -0.50551735438E-05  0.30216077919E-04  0.00000000000E+00 0. -1.
       22    1    1    2    0    0 -0.24735941267E-01 -0.10484349013E-01  0.22401948270E-01  0.34980503869E-01  0.00000000000E+00 0.  1.
</event>
<event>
 5   0  0.3490748E+06  0.9118800E+02  0.7546771E-02  0.1180000E+00
      -11   -1    0    0    0    0  0.00000000000E+00  0.00000000000E+00  0.34996269501E-01  0.35000000000E-01  0.51099999109E-03 0. -1.
       11   -1    0    0    0    0 -0.00000000000E+00 -0.00000000000E+00 -0.34996269501E-01  0.35000000000E-01  0.51099999109E-03 0. -1.
       22    1    1    2    0    0  0.24585348346E-03 -0.11832627968E-03  0.33816022721E-01  0.33817123440E-01  0.00000000000E+00 0. -1.
       22    1    1    2    0    0 -0.15319704038E-03  0.14623541016E-03  0.11738840030E-02  0.11928360243E-02  0.00000000000E+00 0.  1.
       22    1    1    2    0    0 -0.92656443082E-04 -0.27909130482E-04 -0.34989906724E-01  0.34990040536E-01  0.00000000000E+00 0. -1.
</event>
<event>
 5   0  0.3490748E+06  0.9118800E+02  0.7546771E-02  0.1180000E+00
      -11   -1    0    0    0    0  0.00000000000E+00  0.00000000000E+00  0.34996269501E-01  0.35000000000E-01  0.51099999109E-03 0.  1.
       11   -1    0    0    0    0 -0.00000000000E+00 -0.00000000000E+00 -0.34996269501E-01  0.35000000000E-01  0.51099999109E-03 0.  1.
       22    1    1    2    0    0 -0.00000000000E+00 -0.00000000000E+00  0.34019945596E-01  0.34017449420E-01  0.00000000000E+00 0.  1.
       22    1    1    2    0    0 -0.39917639350E-03 -0.15860844560E-03 -0.34952861767E-01  0.34955500914E-01  0.00000000000E+00 0.  1.
       22    1    1    2    0    0  0.39917639350E-03  0.15860844560E-03  0.93291617147E-03  0.10270496654E-02  0.00000000000E+00 0. -1.
</event>
<event>
 5   0  0.3490748E+06  0.9118800E+02  0.7546771E-02  0.1180000E+00
      -11   -1    0    0    0    0  0.00000000000E+00  0.00000000000E+00  0.34996269501E-01  0.35000000000E-01  0.51099999109E-03 0. -1.
       11   -1    0    0    0    0 -0.00000000000E+00 -0.00000000000E+00 -0.34996269501E-01  0.35000000000E-01  0.51099999109E-03 0. -1.
       22    1    1    2    0    0  0.30231980156E-07 -0.21522549183E-07  0.21672664617E-06  0.21988094940E-06  0.00000000000E+00 0.  1.
       22    1    1    2    0    0 -0.30234237137E-07  0.21524155958E-07  0.35001276493E-01  0.34999781692E-01  0.00000000000E+00 0. -1.
       22    1    1    2    0    0  0.22569805835E-11 -0.16067745269E-11 -0.35001493220E-01  0.34999998427E-01  0.00000000000E+00 0. -1.
</event>
<event>
 5   0  0.3490748E+06  0.9118800E+02  0.7546771E-02  0.1180000E+00
      -11   -1    0    0    0    0  0.00000000000E+00  0.00000000000E+00  0.34996269501E-01  0.35000000000E-01  0.51099999109E-03 0.  1.
       11   -1    0    0    0    0 -0.00000000000E+00 -0.00000000000E+00 -0.34996269501E-01  0.35000000000E-01  0.51099999109E-03 0.  1.
       22    1    1    2    0    0  0.11574329639E-08  0.23566645850E-08  0.22409253709E-08  0.34518495839E-08  0.00000000000E+00 0. -1.
       22    1    1    2    0    0 -0.11575470198E-08 -0.23568968157E-08  0.35003163843E-01  0.34999997154E-01  0.00000000000E+00 0.  1.
       22    1    1    2    0    0  0.11405589393E-12  0.23223071601E-12 -0.35003166084E-01  0.34999999395E-01  0.00000000000E+00 0.  1.
</event>
<event>
 5   0  0.3490748E+06  0.9118800E+02  0.7546771E-02  0.1180000E+00
      -11   -1    0    0    0    0  0.00000000000E+00  0.00000000000E+00  0.34996269501E-01  0.35000000000E-01  0.51099999109E-03 0.  1.
       11   -1    0    0    0    0 -0.00000000000E+00 -0.00000000000E+00 -0.34996269501E-01  0.35000000000E-01  0.51099999109E-03 0.  1.
       22    1    1    2    0    0 -0.00000000000E+00 -0.00000000000E+00  0.21699368805E-01  0.21697234732E-01  0.00000000000E+00 0.  1.
       22    1    1    2    0    0  0.31980390853E-03 -0.14719448080E-02 -0.34942146280E-01  0.34974597678E-01  0.00000000000E+00 0.  1.
       22    1    1    2    0    0 -0.31980390853E-03  0.14719448080E-02  0.13242777475E-01  0.13328167590E-01  0.00000000000E+00 0. -1.
</event>
<event>
 5   0  0.3490748E+06  0.9118800E+02  0.7546771E-02  0.1180000E+00
      -11   -1    0    0    0    0  0.00000000000E+00  0.00000000000E+00  0.34996269501E-01  0.35000000000E-01  0.51099999109E-03 0.  1.
       11   -1    0    0    0    0 -0.00000000000E+00 -0.00000000000E+00 -0.34996269501E-01  0.35000000000E-01  0.51099999109E-03 0. -1.
       22    1    1    2    0    0  0.30419627215E-03 -0.14308075101E-02 -0.34962774130E-01  0.34993361090E-01  0.00000000000E+00 0. -1.
       22    1    1    2    0    0 -0.22718327681E-03 -0.49191900811E-04  0.27559050562E-02  0.27656906485E-02  0.00000000000E+00 0.  1.
       22    1    1    2    0    0 -0.77012995341E-04  0.14799994109E-02  0.32206869074E-01  0.32240948262E-01  0.00000000000E+00 0.  1.
</event>
<event>
 5   0  0.3490748E+06  0.9118800E+02  0.7546771E-02  0.1180000E+00
      -11   -1    0    0    0    0  0.00000000000E+00  0.00000000000E+00  0.34996269501E-01  0.35000000000E-01  0.51099999109E-03 0. -1.
       11   -1    0    0    0    0 -0.00000000000E+00 -0.00000000000E+00 -0.34996269501E-01  0.35000000000E-01  0.51099999109E-03 0.  1.
       22    1    1    2    0    0 -0.10955282060E-02 -0.90052707553E-03 -0.18170367109E-02  0.23049410996E-02  0.00000000000E+00 0. -1.
       22    1    1    2    0    0  0.33251664618E-02 -0.29552153495E-02 -0.32644835731E-01  0.32946552622E-01  0.00000000000E+00 0.  1.
       22    1    1    2    0    0 -0.22296382557E-02  0.38557424250E-02  0.34461872442E-01  0.34748506279E-01  0.00000000000E+00 0. -1.
</event>
<event>
 5   0  0.3490748E+06  0.9118800E+02  0.7546771E-02  0.1180000E+00
      -11   -1    0    0    0    0  0.00000000000E+00  0.00000000000E+00  0.34996269501E-01  0.35000000000E-01  0.51099999109E-03 0. -1.
       11   -1    0    0    0    0 -0.00000000000E+00 -0.00000000000E+00 -0.34996269501E-01  0.35000000000E-01  0.51099999109E-03 0.  1.
       22    1    1    2    0    0  0.28847017105E-02  0.12872930682E-02 -0.34857156632E-01  0.34999999941E-01  0.00000000000E+00 0.  1.
       22    1    1    2    0    0 -0.28847019000E-02 -0.12872938191E-02  0.34857150782E-01  0.34999994158E-01  0.00000000000E+00 0. -1.
       22    1    1    2    0    0  0.18950901108E-09  0.75090624809E-09  0.58500282222E-08  0.59010680439E-08  0.00000000000E+00 0.  1.
</event>
<event>
 5   0  0.3490748E+06  0.9118800E+02  0.7546771E-02  0.1180000E+00
      -11   -1    0    0    0    0  0.00000000000E+00  0.00000000000E+00  0.34996269501E-01  0.35000000000E-01  0.51099999109E-03 0. -1.
       11   -1    0    0    0    0 -0.00000000000E+00 -0.00000000000E+00 -0.34996269501E-01  0.35000000000E-01  0.51099999109E-03 0.  1.
       22    1    1    2    0    0 -0.22172776456E-01  0.77062166494E-02  0.25961166842E-01  0.34999999637E-01  0.00000000000E+00 0. -1.
       22    1    1    2    0    0  0.10696881265E-09  0.41532167478E-09  0.26549410071E-09  0.50440215893E-09  0.00000000000E+00 0.  1.
       22    1    1    2    0    0  0.22172776349E-01 -0.77062170647E-02 -0.25961167108E-01  0.34999999858E-01  0.00000000000E+00 0.  1.
</event>
<event>
 5   0  0.3490748E+06  0.9118800E+02  0.7546771E-02  0.1180000E+00
      -11   -1    0    0    0    0  0.00000000000E+00  0.00000000000E+00  0.34996269501E-01  0.35000000000E-01  0.51099999109E-03 0.  1.
       11   -1    0    0    0    0 -0.00000000000E+00 -0.00000000000E+00 -0.34996269501E-01  0.35000000000E-01  0.51099999109E-03 0. -1.
       22    1    1    2    0    0 -0.10444995609E-01 -0.40299591084E-02 -0.29810372726E-01  0.31843316815E-01  0.00000000000E+00 0. -1.
       22    1    1    2    0    0  0.10209615685E-01  0.70414919240E-02  0.32069794783E-01  0.34384452858E-01  0.00000000000E+00 0.  1.
       22    1    1    2    0    0  0.23537992380E-03 -0.30115328157E-02 -0.22594220570E-02  0.37722303270E-02  0.00000000000E+00 0.  1.
</event>
<event>
 5   0  0.3490748E+06  0.9118800E+02  0.7546771E-02  0.1180000E+00
      -11   -1    0    0    0    0  0.00000000000E+00  0.00000000000E+00  0.34996269501E-01  0.35000000000E-01  0.51099999109E-03 0.  1.
       11   -1    0    0    0    0 -0.00000000000E+00 -0.00000000000E+00 -0.34996269501E-01  0.35000000000E-01  0.51099999109E-03 0.  1.
       22    1    1    2    0    0 -0.56975237676E-04  0.50781854147E-03  0.34996267726E-01  0.34999998294E-01  0.00000000000E+00 0.  1.
       22    1    1    2    0    0 -0.13543581868E-08  0.18659627819E-08  0.90591918647E-09  0.24772550886E-08  0.00000000000E+00 0. -1.
       22    1    1    2    0    0  0.56976592034E-04 -0.50782040744E-03 -0.34996268631E-01  0.34999999229E-01  0.00000000000E+00 0.  1.
</event>
<event>
 5   0  0.3490748E+06  0.9118800E+02  0.7546771E-02  0.1180000E+00
      -11   -1    0    0    0    0  0.00000000000E+00  0.00000000000E+00  0.34996269501E-01  0.35000000000E-01  0.51099999109E-03 0.  1.
       11   -1    0    0    0    0 -0.00000000000E+00 -0.00000000000E+00 -0.34996269501E-01  0.35000000000E-01  0.51099999109E-03 0. -1.
       22    1    1    2    0    0  0.17309811111E-03 -0.10998221072E-01 -0.33226351009E-01  0.34999731872E-01  0.00000000000E+00 0. -1.
       22    1    1    2    0    0 -0.44311188321E-06 -0.32437495344E-06  0.13616939067E-06  0.56578207325E-06  0.00000000000E+00 0. -1.
       22    1    1    2    0    0 -0.17265499922E-03  0.10998545447E-01  0.33226214840E-01  0.34999702346E-01  0.00000000000E+00 0.  1.
</event>
<event>
 5   0  0.3490748E+06  0.9118800E+02  0.7546771E-02  0.1180000E+00
      -11   -1    0    0    0    0  0.00000000000E+00  0.00000000000E+00  0.34996269501E-01  0.35000000000E-01  0.51099999109E-03 0.  1.
       11   -1    0    0    0    0 -0.00000000000E+00 -0.00000000000E+00 -0.34996269501E-01  0.35000000000E-01  0.51099999109E-03 0. -1.
       22    1    1    2    0    0 -0.15707619459E-02  0.71073069106E-03  0.34941194790E-01  0.34983703700E-01  0.00000000000E+00 0.  1.
       22    1    1    2    0    0  0.16262555037E-02 -0.67018944453E-03 -0.34879859087E-01  0.34924181176E-01  0.00000000000E+00 0. -1.
       22    1    1    2    0    0 -0.55493557825E-04 -0.40541246539E-04 -0.61335703309E-04  0.92115124336E-04  0.00000000000E+00 0.  1.
</event>
<event>
 5   0  0.3490748E+06  0.9118800E+02  0.7546771E-02  0.1180000E+00
      -11   -1    0    0    0    0  0.00000000000E+00  0.00000000000E+00  0.34996269501E-01  0.35000000000E-01  0.51099999109E-03 0.  1.
       11   -1    0    0    0    0 -0.00000000000E+00 -0.00000000000E+00 -0.34996269501E-01  0.35000000000E-01  0.51099999109E-03 0. -1.
       22    1    1    2    0    0 -0.81312583706E-03  0.95007131437E-03 -0.34977631387E-01  0.34999978665E-01  0.00000000000E+00 0. -1.
       22    1    1    2    0    0  0.81318257180E-03 -0.95025661597E-03  0.34977127779E-01  0.34999481728E-01  0.00000000000E+00 0.  1.
       22    1    1    2    0    0 -0.56734742799E-07  0.18530159273E-06  0.50360724317E-06  0.53960704840E-06  0.00000000000E+00 0.  1.
</event>
<event>
 5   0  0.3490748E+06  0.9118800E+02  0.7546771E-02  0.1180000E+00
      -11   -1    0    0    0    0  0.00000000000E+00  0.00000000000E+00  0.34996269501E-01  0.35000000000E-01  0.51099999109E-03 0.  1.
       11   -1    0    0    0    0 -0.00000000000E+00 -0.00000000000E+00 -0.34996269501E-01  0.35000000000E-01  0.51099999109E-03 0. -1.
       22    1    1    2    0    0 -0.11005599313E-02  0.21726031296E-03 -0.34249280747E-01  0.34267647510E-01  0.00000000000E+00 0. -1.
       22    1    1    2    0    0  0.13784390036E-02 -0.24982087391E-02  0.32987944183E-01  0.33111109955E-01  0.00000000000E+00 0.  1.
       22    1    1    2    0    0 -0.27787907233E-03  0.22809484261E-02  0.12613365637E-02  0.26212425352E-02  0.00000000000E+00 0. -1.
</event>
<event>
 5   0  0.3490748E+06  0.9118800E+02  0.7546771E-02  0.1180000E+00
      -11   -1    0    0    0    0  0.00000000000E+00  0.00000000000E+00  0.34996269501E-01  0.35000000000E-01  0.51099999109E-03 0.  1.
       11   -1    0    0    0    0 -0.00000000000E+00 -0.00000000000E+00 -0.34996269501E-01  0.35000000000E-01  0.51099999109E-03 0. -1.
       22    1    1    2    0    0 -0.75381042407E-02  0.40630102473E-02  0.25781163268E-01  0.27166145242E-01  0.00000000000E+00 0.  1.
       22    1    1    2    0    0 -0.31351803495E-03 -0.92603514932E-03 -0.32202156149E-01  0.32216993890E-01  0.00000000000E+00 0. -1.
       22    1    1    2    0    0  0.78516222757E-02 -0.31369750979E-02  0.64209928807E-02  0.10616860868E-01  0.00000000000E+00 0. -1.
</event>
<event>
 5   0  0.3490748E+06  0.9118800E+02  0.7546771E-02  0.1180000E+00
      -11   -1    0    0    0    0  0.00000000000E+00  0.00000000000E+00  0.34996269501E-01  0.35000000000E-01  0.51099999109E-03 0.  1.
       11   -1    0    0    0    0 -0.00000000000E+00 -0.00000000000E+00 -0.34996269501E-01  0.35000000000E-01  0.51099999109E-03 0. -1.
       22    1    1    2    0    0 -0.18025011375E-04  0.12516575097E-04  0.22065263882E-04  0.31119793660E-04  0.00000000000E+00 0.  1.
       22    1    1    2    0    0  0.33164269352E-02  0.26834075906E-03 -0.34837697004E-01  0.34996225895E-01  0.00000000000E+00 0. -1.
       22    1    1    2    0    0 -0.32984019238E-02 -0.28085733416E-03  0.34815631740E-01  0.34972654311E-01  0.00000000000E+00 0.  1.
</event>
<event>
 5   0  0.3490748E+06  0.9118800E+02  0.7546771E-02  0.1180000E+00
      -11   -1    0    0    0    0  0.00000000000E+00  0.00000000000E+00  0.34996269501E-01  0.35000000000E-01  0.51099999109E-03 0. -1.
       11   -1    0    0    0    0 -0.00000000000E+00 -0.00000000000E+00 -0.34996269501E-01  0.35000000000E-01  0.51099999109E-03 0. -1.
       22    1    1    2    0    0 -0.63868397545E-04  0.32880999724E-04  0.44140261100E-03  0.44720979120E-03  0.00000000000E+00 0.  1.
       22    1    1    2    0    0  0.30574890098E-03  0.27032385381E-03  0.34553414076E-01  0.34555824136E-01  0.00000000000E+00 0. -1.
       22    1    1    2    0    0 -0.24188050344E-03 -0.30320485353E-03 -0.34994816687E-01  0.34996966073E-01  0.00000000000E+00 0. -1.
</event>
<event>
 5   0  0.3490748E+06  0.9118800E+02  0.7546771E-02  0.1180000E+00
      -11   -1    0    0    0    0  0.00000000000E+00  0.00000000000E+00  0.34996269501E-01  0.35000000000E-01  0.51099999109E-03 0.  1.
       11   -1    0    0    0    0 -0.00000000000E+00 -0.00000000000E+00 -0.34996269501E-01  0.35000000000E-01  0.51099999109E-03 0. -1.
       22    1    1    2    0    0 -0.45645915708E-02 -0.24435107296E-02 -0.34611433311E-01  0.34996536353E-01  0.00000000000E+00 0. -1.
       22    1    1    2    0    0  0.27202224070E-04  0.10879976696E-03  0.49651359582E-03  0.50902170987E-03  0.00000000000E+00 0.  1.
       22    1    1    2    0    0  0.45373893467E-02  0.23347109627E-02  0.34114919715E-01  0.34494441937E-01  0.00000000000E+00 0.  1.
</event>
<event>
 5   0  0.3490748E+06  0.9118800E+02  0.7546771E-02  0.1180000E+00
      -11   -1    0    0    0    0  0.00000000000E+00  0.00000000000E+00  0.34996269501E-01  0.35000000000E-01  0.51099999109E-03 0.  1.
       11   -1    0    0    0    0 -0.00000000000E+00 -0.00000000000E+00 -0.34996269501E-01  0.35000000000E-01  0.51099999109E-03 0. -1.
       22    1    1    2    0    0 -0.80261216286E-04  0.31798282039E-03 -0.34998463165E-01  0.34999999698E-01  0.00000000000E+00 0. -1.
       22    1    1    2    0    0 -0.27756669611E-08  0.13378313400E-08  0.78232371575E-08  0.84081602861E-08  0.00000000000E+00 0. -1.
       22    1    1    2    0    0  0.80263991953E-04 -0.31798415822E-03  0.34998455342E-01  0.34999991894E-01  0.00000000000E+00 0.  1.
</event>
<event>
 5   0  0.3490748E+06  0.9118800E+02  0.7546771E-02  0.1180000E+00
      -11   -1    0    0    0    0  0.00000000000E+00  0.00000000000E+00  0.34996269501E-01  0.35000000000E-01  0.51099999109E-03 0. -1.
       11   -1    0    0    0    0 -0.00000000000E+00 -0.00000000000E+00 -0.34996269501E-01  0.35000000000E-01  0.51099999109E-03 0.  1.
       22    1    1    2    0    0 -0.19153897208E-01  0.25270842731E-01  0.14785435261E-01  0.34987088568E-01  0.00000000000E+00 0.  1.
       22    1    1    2    0    0  0.19150823582E-01 -0.25273994824E-01 -0.14742167686E-01  0.34969420446E-01  0.00000000000E+00 0. -1.
       22    1    1    2    0    0  0.30736259795E-05  0.31520933402E-05 -0.43267574631E-04  0.43490986233E-04  0.00000000000E+00 0.  1.
</event>
<event>
 5   0  0.3490748E+06  0.9118800E+02  0.7546771E-02  0.1180000E+00
      -11   -1    0    0    0    0  0.00000000000E+00  0.00000000000E+00  0.34996269501E-01  0.35000000000E-01  0.51099999109E-03 0. -1.
       11   -1    0    0    0    0 -0.00000000000E+00 -0.00000000000E+00 -0.34996269501E-01  0.35000000000E-01  0.51099999109E-03 0.  1.
       22    1    1    2    0    0 -0.50192862351E-03 -0.22657140214E-02  0.34922590082E-01  0.34999609861E-01  0.00000000000E+00 0. -1.
       22    1    1    2    0    0  0.50201501613E-03  0.22656453312E-02 -0.34922974482E-01  0.34999990207E-01  0.00000000000E+00 0.  1.
       22    1    1    2    0    0 -0.86392618018E-07  0.68690236282E-07  0.38440026745E-06  0.39993199250E-06  0.00000000000E+00 0.  1.
</event>
<event>
 5   0  0.3490748E+06  0.9118800E+02  0.7546771E-02  0.1180000E+00
      -11   -1    0    0    0    0  0.00000000000E+00  0.00000000000E+00  0.34996269501E-01  0.35000000000E-01  0.51099999109E-03 0.  1.
       11   -1    0    0    0    0 -0.00000000000E+00 -0.00000000000E+00 -0.34996269501E-01  0.35000000000E-01  0.51099999109E-03 0. -1.
       22    1    1    2    0    0 -0.13334760816E-06 -0.69605988247E-07  0.35214904993E-06  0.38293019151E-06  0.00000000000E+00 0. -1.
       22    1    1    2    0    0 -0.31369731148E-03 -0.24489277814E-03 -0.34997721133E-01  0.34999983757E-01  0.00000000000E+00 0. -1.
       22    1    1    2    0    0  0.31383065909E-03  0.24496238413E-03  0.34997368984E-01  0.34999633313E-01  0.00000000000E+00 0.  1.
</event>
<event>
 5   0  0.3490748E+06  0.9118800E+02  0.7546771E-02  0.1180000E+00
      -11   -1    0    0    0    0  0.00000000000E+00  0.00000000000E+00  0.34996269501E-01  0.35000000000E-01  0.51099999109E-03 0.  1.
       11   -1    0    0    0    0 -0.00000000000E+00 -0.00000000000E+00 -0.34996269501E-01  0.35000000000E-01  0.51099999109E-03 0. -1.
       22    1    1    2    0    0 -0.22389274672E-01  0.24820902844E-01 -0.98774167193E-02  0.34855705406E-01  0.00000000000E+00 0. -1.
       22    1    1    2    0    0  0.29380382569E-04  0.13559950557E-03 -0.11262137526E-03  0.17870088683E-03  0.00000000000E+00 0.  1.
       22    1    1    2    0    0  0.22359894289E-01 -0.24956502349E-01  0.99900380946E-02  0.34965593707E-01  0.00000000000E+00 0.  1.
</event>
<event>
 5   0  0.3490748E+06  0.9118800E+02  0.7546771E-02  0.1180000E+00
      -11   -1    0    0    0    0  0.00000000000E+00  0.00000000000E+00  0.34996269501E-01  0.35000000000E-01  0.51099999109E-03 0.  1.
       11   -1    0    0    0    0 -0.00000000000E+00 -0.00000000000E+00 -0.34996269501E-01  0.35000000000E-01  0.51099999109E-03 0. -1.
       22    1    1    2    0    0 -0.15627339290E-01 -0.97649729962E-02 -0.29756200854E-01  0.34999998859E-01  0.00000000000E+00 0. -1.
       22    1    1    2    0    0 -0.16285673569E-08 -0.14285654438E-08  0.28633168807E-08  0.35904894405E-08  0.00000000000E+00 0. -1.
       22    1    1    2    0    0  0.15627340918E-01  0.97649744247E-02  0.29756197990E-01  0.34999997550E-01  0.00000000000E+00 0.  1.
</event>
<event>
 5   0  0.3490748E+06  0.9118800E+02  0.7546771E-02  0.1180000E+00
      -11   -1    0    0    0    0  0.00000000000E+00  0.00000000000E+00  0.34996269501E-01  0.35000000000E-01  0.51099999109E-03 0.  1.
       11   -1    0    0    0    0 -0.00000000000E+00 -0.00000000000E+00 -0.34996269501E-01  0.35000000000E-01  0.51099999109E-03 0. -1.
       22    1    1    2    0    0  0.94866332062E-02  0.14714488097E-01  0.30059709579E-01  0.34786470208E-01  0.00000000000E+00 0.  1.
       22    1    1    2    0    0  0.35619071051E-03 -0.80200074459E-04 -0.22745933868E-02  0.23037098232E-02  0.00000000000E+00 0.  1.
       22    1    1    2    0    0 -0.98428239167E-02 -0.14634288022E-01 -0.27785116192E-01  0.32909819969E-01  0.00000000000E+00 0. -1.
</event>
<event>
 5   0  0.3490748E+06  0.9118800E+02  0.7546771E-02  0.1180000E+00
      -11   -1    0    0    0    0  0.00000000000E+00  0.00000000000E+00  0.34996269501E-01  0.35000000000E-01  0.51099999109E-03 0. -1.
       11   -1    0    0    0    0 -0.00000000000E+00 -0.00000000000E+00 -0.34996269501E-01  0.35000000000E-01  0.51099999109E-03 0.  1.
       22    1    1    2    0    0  0.26998011230E-03 -0.24896481683E-02  0.34848886848E-01  0.34938748572E-01  0.00000000000E+00 0. -1.
       22    1    1    2    0    0  0.63270121016E-04  0.27329911867E-04  0.42847844897E-04  0.81153990095E-04  0.00000000000E+00 0.  1.
       22    1    1    2    0    0 -0.33325023332E-03  0.24623182564E-02 -0.34891734692E-01  0.34980097438E-01  0.00000000000E+00 0.  1.
</event>
<event>
 5   0  0.3490748E+06  0.9118800E+02  0.7546771E-02  0.1180000E+00
      -11   -1    0    0    0    0  0.00000000000E+00  0.00000000000E+00  0.34996269501E-01  0.35000000000E-01  0.51099999109E-03 0. -1.
       11   -1    0    0    0    0 -0.00000000000E+00 -0.00000000000E+00 -0.34996269501E-01  0.35000000000E-01  0.51099999109E-03 0.  1.
       22    1    1    2    0    0  0.23606147486E-02 -0.74282528941E-05  0.14975005981E-01  0.15159926164E-01  0.00000000000E+00 0. -1.
       22    1    1    2    0    0  0.16695474704E-01  0.13368660472E-01 -0.21846490715E-01  0.30573339938E-01  0.00000000000E+00 0.  1.
       22    1    1    2    0    0 -0.19056089452E-01 -0.13361232219E-01  0.68714847336E-02  0.24266733898E-01  0.00000000000E+00 0. -1.
</event>
<event>
 5   0  0.3490748E+06  0.9118800E+02  0.7546771E-02  0.1180000E+00
      -11   -1    0    0    0    0  0.00000000000E+00  0.00000000000E+00  0.34996269501E-01  0.35000000000E-01  0.51099999109E-03 0.  1.
       11   -1    0    0    0    0 -0.00000000000E+00 -0.00000000000E+00 -0.34996269501E-01  0.35000000000E-01  0.51099999109E-03 0. -1.
       22    1    1    2    0    0 -0.90302249163E-03  0.50887648613E-03  0.29354754590E-01  0.29373049245E-01  0.00000000000E+00 0.  1.
       22    1    1    2    0    0  0.55973622342E-03  0.22146090033E-02 -0.34616724526E-01  0.34692007935E-01  0.00000000000E+00 0. -1.
       22    1    1    2    0    0  0.34328626821E-03 -0.27234854894E-02  0.52619699359E-02  0.59349428203E-02  0.00000000000E+00 0.  1.
</event>
<event>
 5   0  0.3490748E+06  0.9118800E+02  0.7546771E-02  0.1180000E+00
      -11   -1    0    0    0    0  0.00000000000E+00  0.00000000000E+00  0.34996269501E-01  0.35000000000E-01  0.51099999109E-03 0.  1.
       11   -1    0    0    0    0 -0.00000000000E+00 -0.00000000000E+00 -0.34996269501E-01  0.35000000000E-01  0.51099999109E-03 0. -1.
       22    1    1    2    0    0 -0.13402505110E-02  0.18855631447E-01  0.29456208227E-01  0.34999990169E-01  0.00000000000E+00 0.  1.
       22    1    1    2    0    0  0.13402616221E-02 -0.18855624547E-01 -0.29456216873E-01  0.34999994153E-01  0.00000000000E+00 0. -1.
       22    1    1    2    0    0 -0.11111109261E-07 -0.68996274498E-08  0.86453655954E-08  0.15678136185E-07  0.00000000000E+00 0.  1.
</event>
<event>
 5   0  0.3490748E+06  0.9118800E+02  0.7546771E-02  0.1180000E+00
      -11   -1    0    0    0    0  0.00000000000E+00  0.00000000000E+00  0.34996269501E-01  0.35000000000E-01  0.51099999109E-03 0. -1.
       11   -1    0    0    0    0 -0.00000000000E+00 -0.00000000000E+00 -0.34996269501E-01  0.35000000000E-01  0.51099999109E-03 0.  1.
       22    1    1    2    0    0  0.75630840088E-02 -0.14205335759E-01 -0.31080669579E-01  0.34999997503E-01  0.00000000000E+00 0.  1.
       22    1    1    2    0    0  0.21137758061E-08 -0.76907504628E-09  0.37114391569E-07  0.37182490316E-07  0.00000000000E+00 0. -1.
       22    1    1    2    0    0 -0.75630861226E-02  0.14205336529E-01  0.31080632465E-01  0.34999965314E-01  0.00000000000E+00 0. -1.
</event>
<event>
 5   0  0.3490748E+06  0.9118800E+02  0.7546771E-02  0.1180000E+00
      -11   -1    0    0    0    0  0.00000000000E+00  0.00000000000E+00  0.34996269501E-01  0.35000000000E-01  0.51099999109E-03 0.  1.
       11   -1    0    0    0    0 -0.00000000000E+00 -0.00000000000E+00 -0.34996269501E-01  0.35000000000E-01  0.51099999109E-03 0. -1.
       22    1    1    2    0    0 -0.42168752871E-08 -0.29848038434E-08  0.11749995287E-07  0.12835633230E-07  0.00000000000E+00 0. -1.
       22    1    1    2    0    0  0.75839145528E-02  0.21512340488E-01  0.26546238562E-01  0.34999990500E-01  0.00000000000E+00 0.  1.
       22    1    1    2    0    0 -0.75839103359E-02 -0.21512337503E-01 -0.26546250312E-01  0.34999996664E-01  0.00000000000E+00 0. -1.
</event>
<event>
 5   0  0.3490748E+06  0.9118800E+02  0.7546771E-02  0.1180000E+00
      -11   -1    0    0    0    0  0.00000000000E+00  0.00000000000E+00  0.34996269501E-01  0.35000000000E-01  0.51099999109E-03 0. -1.
       11   -1    0    0    0    0 -0.00000000000E+00 -0.00000000000E+00 -0.34996269501E-01  0.35000000000E-01  0.51099999109E-03 0. -1.
       22    1    1    2    0    0  0.43702261799E-04 -0.51689829102E-05  0.17780030694E-02  0.17785475874E-02  0.00000000000E+00 0. -1.
       22    1    1    2    0    0  0.96633320262E-03  0.44227232256E-03  0.33204569646E-01  0.33221572059E-01  0.00000000000E+00 0. -1.
       22    1    1    2    0    0 -0.10100354644E-02 -0.43710333965E-03 -0.34982572716E-01  0.34999880354E-01  0.00000000000E+00 0. -1.
</event>
<event>
 5   0  0.3490748E+06  0.9118800E+02  0.7546771E-02  0.1180000E+00
      -11   -1    0    0    0    0  0.00000000000E+00  0.00000000000E+00  0.34996269501E-01  0.35000000000E-01  0.51099999109E-03 0. -1.
       11   -1    0    0    0    0 -0.00000000000E+00 -0.00000000000E+00 -0.34996269501E-01  0.35000000000E-01  0.51099999109E-03 0.  1.
       22    1    1    2    0    0 -0.13626145266E-08 -0.37785252216E-08  0.71191168654E-08  0.81740929858E-08  0.00000000000E+00 0.  1.
       22    1    1    2    0    0  0.80680713843E-03 -0.34266156159E-01 -0.70837306748E-02  0.34999994799E-01  0.00000000000E+00 0.  1.
       22    1    1    2    0    0 -0.80680577581E-03  0.34266159938E-01  0.70837235557E-02  0.34999997026E-01  0.00000000000E+00 0. -1.
</event>
<event>
 5   0  0.3490748E+06  0.9118800E+02  0.7546771E-02  0.1180000E+00
      -11   -1    0    0    0    0  0.00000000000E+00  0.00000000000E+00  0.34996269501E-01  0.35000000000E-01  0.51099999109E-03 0.  1.
       11   -1    0    0    0    0 -0.00000000000E+00 -0.00000000000E+00 -0.34996269501E-01  0.35000000000E-01  0.51099999109E-03 0.  1.
       22    1    1    2    0    0  0.90755013106E-09  0.86085689617E-09  0.35003682112E-01  0.34999977365E-01  0.00000000000E+00 0.  1.
       22    1    1    2    0    0 -0.90745373299E-09 -0.86076545776E-09  0.22616210280E-07  0.22650769455E-07  0.00000000000E+00 0.  1.
       22    1    1    2    0    0 -0.96398071551E-13 -0.91438414069E-13 -0.35003704728E-01  0.34999999984E-01  0.00000000000E+00 0.  1.
</event>
<event>
 5   0  0.3490748E+06  0.9118800E+02  0.7546771E-02  0.1180000E+00
      -11   -1    0    0    0    0  0.00000000000E+00  0.00000000000E+00  0.34996269501E-01  0.35000000000E-01  0.51099999109E-03 0. -1.
       11   -1    0    0    0    0 -0.00000000000E+00 -0.00000000000E+00 -0.34996269501E-01  0.35000000000E-01  0.51099999109E-03 0.  1.
       22    1    1    2    0    0 -0.72515076805E-02 -0.34217661063E-01  0.91148558194E-03  0.34989476964E-01  0.00000000000E+00 0. -1.
       22    1    1    2    0    0 -0.15215234357E-05  0.17781517260E-05  0.21770278625E-04  0.21895704797E-04  0.00000000000E+00 0. -1.
       22    1    1    2    0    0  0.72530292039E-02  0.34215882911E-01 -0.93325586056E-03  0.34988627331E-01  0.00000000000E+00 0.  1.
</event>
<event>
 5   0  0.3490748E+06  0.9118800E+02  0.7546771E-02  0.1180000E+00
      -11   -1    0    0    0    0  0.00000000000E+00  0.00000000000E+00  0.34996269501E-01  0.35000000000E-01  0.51099999109E-03 0.  1.
       11   -1    0    0    0    0 -0.00000000000E+00 -0.00000000000E+00 -0.34996269501E-01  0.35000000000E-01  0.51099999109E-03 0. -1.
       22    1    1    2    0    0 -0.19758693460E-02 -0.83923820395E-03 -0.34747873083E-01  0.34814121621E-01  0.00000000000E+00 0. -1.
       22    1    1    2    0    0  0.36384532939E-03 -0.40677773169E-03  0.20502964824E-03  0.58299974560E-03  0.00000000000E+00 0.  1.
       22    1    1    2    0    0  0.16120240166E-02  0.12460159356E-02  0.34542843435E-01  0.34602878633E-01  0.00000000000E+00 0.  1.
</event>
<event>
 5   0  0.3490748E+06  0.9118800E+02  0.7546771E-02  0.1180000E+00
      -11   -1    0    0    0    0  0.00000000000E+00  0.00000000000E+00  0.34996269501E-01  0.35000000000E-01  0.51099999109E-03 0. -1.
       11   -1    0    0    0    0 -0.00000000000E+00 -0.00000000000E+00 -0.34996269501E-01  0.35000000000E-01  0.51099999109E-03 0.  1.
       22    1    1    2    0    0 -0.17189736959E-03 -0.87197346386E-03 -0.34988714014E-01  0.34999999926E-01  0.00000000000E+00 0.  1.
       22    1    1    2    0    0  0.26081653241E-08 -0.23339220019E-08  0.78089794175E-07  0.78168188367E-07  0.00000000000E+00 0.  1.
       22    1    1    2    0    0  0.17189476143E-03  0.87197579779E-03  0.34988635924E-01  0.34999921906E-01  0.00000000000E+00 0. -1.
</event>
<event>
 5   0  0.3490748E+06  0.9118800E+02  0.7546771E-02  0.1180000E+00
      -11   -1    0    0    0    0  0.00000000000E+00  0.00000000000E+00  0.34996269501E-01  0.35000000000E-01  0.51099999109E-03 0. -1.
       11   -1    0    0    0    0 -0.00000000000E+00 -0.00000000000E+00 -0.34996269501E-01  0.35000000000E-01  0.51099999109E-03 0.  1.
       22    1    1    2    0    0 -0.26140373210E-08 -0.38740580476E-08  0.19076958148E-07  0.19641075558E-07  0.00000000000E+00 0. -1.
       22    1    1    2    0    0 -0.59735009444E-03  0.89183993490E-02 -0.33839404797E-01  0.34999999873E-01  0.00000000000E+00 0.  1.
       22    1    1    2    0    0  0.59735270848E-03 -0.89183954749E-02  0.33839385720E-01  0.34999980486E-01  0.00000000000E+00 0. -1.
</event>
<event>
 5   0  0.3490748E+06  0.9118800E+02  0.7546771E-02  0.1180000E+00
      -11   -1    0    0    0    0  0.00000000000E+00  0.00000000000E+00  0.34996269501E-01  0.35000000000E-01  0.51099999109E-03 0. -1.
       11   -1    0    0    0    0 -0.00000000000E+00 -0.00000000000E+00 -0.34996269501E-01  0.35000000000E-01  0.51099999109E-03 0.  1.
       22    1    1    2    0    0 -0.95846087554E-03  0.17257298112E-02  0.16758329390E-01  0.16874193154E-01  0.00000000000E+00 0. -1.
       22    1    1    2    0    0  0.23509646813E-01  0.92435179082E-02 -0.98517818500E-02  0.27114640367E-01  0.00000000000E+00 0. -1.
       22    1    1    2    0    0 -0.22551185937E-01 -0.10969247719E-01 -0.69065475404E-02  0.26011166480E-01  0.00000000000E+00 0.  1.
</event>
<event>
 5   0  0.3490748E+06  0.9118800E+02  0.7546771E-02  0.1180000E+00
      -11   -1    0    0    0    0  0.00000000000E+00  0.00000000000E+00  0.34996269501E-01  0.35000000000E-01  0.51099999109E-03 0. -1.
       11   -1    0    0    0    0 -0.00000000000E+00 -0.00000000000E+00 -0.34996269501E-01  0.35000000000E-01  0.51099999109E-03 0.  1.
       22    1    1    2    0    0  0.71423634611E-04 -0.50876682542E-03 -0.56636306805E-03  0.76466472592E-03  0.00000000000E+00 0. -1.
       22    1    1    2    0    0 -0.17503109355E-01  0.28145615190E-01 -0.10451072866E-01  0.34752833202E-01  0.00000000000E+00 0.  1.
       22    1    1    2    0    0  0.17431685721E-01 -0.27636848365E-01  0.11017435934E-01  0.34482502072E-01  0.00000000000E+00 0. -1.
</event>
<event>
 5   0  0.3490748E+06  0.9118800E+02  0.7546771E-02  0.1180000E+00
      -11   -1    0    0    0    0  0.00000000000E+00  0.00000000000E+00  0.34996269501E-01  0.35000000000E-01  0.51099999109E-03 0.  1.
       11   -1    0    0    0    0 -0.00000000000E+00 -0.00000000000E+00 -0.34996269501E-01  0.35000000000E-01  0.51099999109E-03 0. -1.
       22    1    1    2    0    0  0.23264480953E-02  0.90117949821E-03  0.33644133795E-01  0.33736511735E-01  0.00000000000E+00 0.  1.
       22    1    1    2    0    0 -0.21821019058E-02 -0.92506542004E-03 -0.34909413962E-01  0.34989777049E-01  0.00000000000E+00 0. -1.
       22    1    1    2    0    0 -0.14434618953E-03  0.23885921830E-04  0.12652801675E-02  0.12737112161E-02  0.00000000000E+00 0.  1.
</event>
<event>
 5   0  0.3490748E+06  0.9118800E+02  0.7546771E-02  0.1180000E+00
      -11   -1    0    0    0    0  0.00000000000E+00  0.00000000000E+00  0.34996269501E-01  0.35000000000E-01  0.51099999109E-03 0.  1.
       11   -1    0    0    0    0 -0.00000000000E+00 -0.00000000000E+00 -0.34996269501E-01  0.35000000000E-01  0.51099999109E-03 0.  1.
       22    1    1    2    0    0 -0.93912443313E-09  0.10614669413E-08  0.13715848846E-07  0.13788878719E-07  0.00000000000E+00 0. -1.
       22    1    1    2    0    0 -0.13537570047E-03  0.63455180274E-03 -0.34993985397E-01  0.34999999951E-01  0.00000000000E+00 0.  1.
       22    1    1    2    0    0  0.13537663959E-03 -0.63455286420E-03  0.34993971682E-01  0.34999986260E-01  0.00000000000E+00 0.  1.
</event>
<event>
 5   0  0.3490748E+06  0.9118800E+02  0.7546771E-02  0.1180000E+00
      -11   -1    0    0    0    0  0.00000000000E+00  0.00000000000E+00  0.34996269501E-01  0.35000000000E-01  0.51099999109E-03 0.  1.
       11   -1    0    0    0    0 -0.00000000000E+00 -0.00000000000E+00 -0.34996269501E-01  0.35000000000E-01  0.51099999109E-03 0. -1.
       22    1    1    2    0    0 -0.13087158911E-02 -0.43208482775E-02  0.31730884280E-01  0.32050452171E-01  0.00000000000E+00 0.  1.
       22    1    1    2    0    0 -0.24997138709E-03 -0.77400956625E-03  0.28483752571E-02  0.29622319471E-02  0.00000000000E+00 0.  1.
       22    1    1    2    0    0  0.15586872782E-02  0.50948578438E-02 -0.34579259538E-01  0.34987315882E-01  0.00000000000E+00 0. -1.
</event>
<event>
 5   0  0.3490748E+06  0.9118800E+02  0.7546771E-02  0.1180000E+00
      -11   -1    0    0    0    0  0.00000000000E+00  0.00000000000E+00  0.34996269501E-01  0.35000000000E-01  0.51099999109E-03 0.  1.
       11   -1    0    0    0    0 -0.00000000000E+00 -0.00000000000E+00 -0.34996269501E-01  0.35000000000E-01  0.51099999109E-03 0.  1.
       22    1    1    2    0    0  0.43468003122E-02  0.40789924342E-02 -0.30888236380E-01  0.31458162675E-01  0.00000000000E+00 0.  1.
       22    1    1    2    0    0 -0.43755801971E-02 -0.41065907440E-02  0.34455600451E-01  0.34974250414E-01  0.00000000000E+00 0.  1.
       22    1    1    2    0    0  0.28779884870E-04  0.27598309799E-04 -0.35673640711E-02  0.35675869106E-02  0.00000000000E+00 0.  1.
</event>
<event>
 5   0  0.3490748E+06  0.9118800E+02  0.7546771E-02  0.1180000E+00
      -11   -1    0    0    0    0  0.00000000000E+00  0.00000000000E+00  0.34996269501E-01  0.35000000000E-01  0.51099999109E-03 0. -1.
       11   -1    0    0    0    0 -0.00000000000E+00 -0.00000000000E+00 -0.34996269501E-01  0.35000000000E-01  0.51099999109E-03 0.  1.
       22    1    1    2    0    0 -0.13785590117E-04  0.38141955385E-02  0.64705519887E-02  0.75110798616E-02  0.00000000000E+00 0. -1.
       22    1    1    2    0    0 -0.16463782554E-01 -0.26779168180E-02 -0.29654167628E-01  0.34023477662E-01  0.00000000000E+00 0.  1.
       22    1    1    2    0    0  0.16477568144E-01 -0.11362787205E-02  0.23183615640E-01  0.28465442477E-01  0.00000000000E+00 0. -1.
</event>
<event>
 5   0  0.3490748E+06  0.9118800E+02  0.7546771E-02  0.1180000E+00
      -11   -1    0    0    0    0  0.00000000000E+00  0.00000000000E+00  0.34996269501E-01  0.35000000000E-01  0.51099999109E-03 0.  1.
       11   -1    0    0    0    0 -0.00000000000E+00 -0.00000000000E+00 -0.34996269501E-01  0.35000000000E-01  0.51099999109E-03 0. -1.
       22    1    1    2    0    0 -0.11715274588E-06  0.14308387822E-06  0.15135840255E-06  0.23897097752E-06  0.00000000000E+00 0.  1.
       22    1    1    2    0    0 -0.12014387636E-02 -0.30485149723E-03  0.34977848063E-01  0.34999803495E-01  0.00000000000E+00 0.  1.
       22    1    1    2    0    0  0.12015559163E-02  0.30470841335E-03 -0.34977999422E-01  0.34999957534E-01  0.00000000000E+00 0. -1.
</event>
<event>
 5   0  0.3490748E+06  0.9118800E+02  0.7546771E-02  0.1180000E+00
      -11   -1    0    0    0    0  0.00000000000E+00  0.00000000000E+00  0.34996269501E-01  0.35000000000E-01  0.51099999109E-03 0.  1.
       11   -1    0    0    0    0 -0.00000000000E+00 -0.00000000000E+00 -0.34996269501E-01  0.35000000000E-01  0.51099999109E-03 0. -1.
       22    1    1    2    0    0 -0.53412515118E-02  0.36892540653E-02  0.33768807220E-01  0.34387089210E-01  0.00000000000E+00 0.  1.
       22    1    1    2    0    0 -0.24439862744E-03 -0.21547534735E-03  0.56634040622E-03  0.65337720355E-03  0.00000000000E+00 0.  1.
       22    1    1    2    0    0  0.55856501392E-02 -0.34737787179E-02 -0.34335147626E-01  0.34959533586E-01  0.00000000000E+00 0. -1.
</event>
<event>
 5   0  0.3490748E+06  0.9118800E+02  0.7546771E-02  0.1180000E+00
      -11   -1    0    0    0    0  0.00000000000E+00  0.00000000000E+00  0.34996269501E-01  0.35000000000E-01  0.51099999109E-03 0.  1.
       11   -1    0    0    0    0 -0.00000000000E+00 -0.00000000000E+00 -0.34996269501E-01  0.35000000000E-01  0.51099999109E-03 0. -1.
       22    1    1    2    0    0  0.52687693028E-08 -0.82947480802E-08  0.16165987757E-07  0.18918296325E-07  0.00000000000E+00 0. -1.
       22    1    1    2    0    0 -0.11867087363E-02 -0.25797832042E-03  0.34978907159E-01  0.34999982521E-01  0.00000000000E+00 0.  1.
       22    1    1    2    0    0  0.11867034675E-02  0.25798661517E-03 -0.34978923325E-01  0.34999998560E-01  0.00000000000E+00 0. -1.
</event>
<event>
 5   0  0.3490748E+06  0.9118800E+02  0.7546771E-02  0.1180000E+00
      -11   -1    0    0    0    0  0.00000000000E+00  0.00000000000E+00  0.34996269501E-01  0.35000000000E-01  0.51099999109E-03 0. -1.
       11   -1    0    0    0    0 -0.00000000000E+00 -0.00000000000E+00 -0.34996269501E-01  0.35000000000E-01  0.51099999109E-03 0. -1.
       22    1    1    2    0    0 -0.85037981332E-08 -0.75284829872E-10  0.27971331146E-07  0.29235519776E-07  0.00000000000E+00 0. -1.
       22    1    1    2    0    0 -0.16777618371E-02  0.75468586572E-03 -0.34951616624E-01  0.34999999146E-01  0.00000000000E+00 0. -1.
       22    1    1    2    0    0  0.16777703409E-02 -0.75468579044E-03  0.34951588653E-01  0.34999971619E-01  0.00000000000E+00 0. -1.
</event>
<event>
 5   0  0.3490748E+06  0.9118800E+02  0.7546771E-02  0.1180000E+00
      -11   -1    0    0    0    0  0.00000000000E+00  0.00000000000E+00  0.34996269501E-01  0.35000000000E-01  0.51099999109E-03 0.  1.
       11   -1    0    0    0    0 -0.00000000000E+00 -0.00000000000E+00 -0.34996269501E-01  0.35000000000E-01  0.51099999109E-03 0. -1.
       22    1    1    2    0    0  0.15490889197E-01  0.75958082416E-03  0.31375951793E-01  0.34999928029E-01  0.00000000000E+00 0.  1.
       22    1    1    2    0    0 -0.15490891347E-01 -0.75957093189E-03 -0.31376026947E-01  0.34999996138E-01  0.00000000000E+00 0. -1.
       22    1    1    2    0    0  0.21503822283E-08 -0.98922702583E-08  0.75153656717E-07  0.75832402524E-07  0.00000000000E+00 0. -1.
</event>
<event>
 5   0  0.3490748E+06  0.9118800E+02  0.7546771E-02  0.1180000E+00
      -11   -1    0    0    0    0  0.00000000000E+00  0.00000000000E+00  0.34996269501E-01  0.35000000000E-01  0.51099999109E-03 0. -1.
       11   -1    0    0    0    0 -0.00000000000E+00 -0.00000000000E+00 -0.34996269501E-01  0.35000000000E-01  0.51099999109E-03 0.  1.
       22    1    1    2    0    0  0.34830222452E-03 -0.66150955252E-02  0.49668412688E-02  0.82795117873E-02  0.00000000000E+00 0.  1.
       22    1    1    2    0    0 -0.12999866271E-02  0.70914701553E-02  0.27910139477E-01  0.28826286612E-01  0.00000000000E+00 0. -1.
       22    1    1    2    0    0  0.95168440259E-03 -0.47637463012E-03 -0.32876980746E-01  0.32894201601E-01  0.00000000000E+00 0.  1.
</event>
<event>
 5   0  0.3490748E+06  0.9118800E+02  0.7546771E-02  0.1180000E+00
      -11   -1    0    0    0    0  0.00000000000E+00  0.00000000000E+00  0.34996269501E-01  0.35000000000E-01  0.51099999109E-03 0. -1.
       11   -1    0    0    0    0 -0.00000000000E+00 -0.00000000000E+00 -0.34996269501E-01  0.35000000000E-01  0.51099999109E-03 0.  1.
       22    1    1    2    0    0  0.86522088017E-02  0.66065918300E-02 -0.33263976737E-01  0.34999998873E-01  0.00000000000E+00 0.  1.
       22    1    1    2    0    0  0.31832554217E-08  0.61854676603E-09  0.39865942821E-08  0.51389346320E-08  0.00000000000E+00 0. -1.
       22    1    1    2    0    0 -0.86522119850E-02 -0.66065924485E-02  0.33263972750E-01  0.34999995988E-01  0.00000000000E+00 0. -1.
</event>
<event>
 5   0  0.3490748E+06  0.9118800E+02  0.7546771E-02  0.1180000E+00
      -11   -1    0    0    0    0  0.00000000000E+00  0.00000000000E+00  0.34996269501E-01  0.35000000000E-01  0.51099999109E-03 0.  1.
       11   -1    0    0    0    0 -0.00000000000E+00 -0.00000000000E+00 -0.34996269501E-01  0.35000000000E-01  0.51099999109E-03 0. -1.
       22    1    1    2    0    0  0.31355996827E-01 -0.46721588188E-02 -0.12906511826E-01  0.34228725547E-01  0.00000000000E+00 0. -1.
       22    1    1    2    0    0 -0.31486852319E-01  0.48815681107E-02  0.13888776018E-01  0.34758447541E-01  0.00000000000E+00 0.  1.
       22    1    1    2    0    0  0.13085549203E-03 -0.20940929199E-03 -0.98226419231E-03  0.10128269126E-02  0.00000000000E+00 0. -1.
</event>
<event>
 5   0  0.3490748E+06  0.9118800E+02  0.7546771E-02  0.1180000E+00
      -11   -1    0    0    0    0  0.00000000000E+00  0.00000000000E+00  0.34996269501E-01  0.35000000000E-01  0.51099999109E-03 0. -1.
       11   -1    0    0    0    0 -0.00000000000E+00 -0.00000000000E+00 -0.34996269501E-01  0.35000000000E-01  0.51099999109E-03 0.  1.
       22    1    1    2    0    0  0.92908554454E-06 -0.80156088819E-06 -0.14673203317E-06  0.12358115132E-05  0.00000000000E+00 0.  1.
       22    1    1    2    0    0 -0.42437159548E-02  0.12629299205E-01  0.32364598524E-01  0.34999650872E-01  0.00000000000E+00 0. -1.
       22    1    1    2    0    0  0.42427868693E-02 -0.12628497644E-01 -0.32364451792E-01  0.34999113317E-01  0.00000000000E+00 0.  1.
</event>
<event>
 5   0  0.3490748E+06  0.9118800E+02  0.7546771E-02  0.1180000E+00
      -11   -1    0    0    0    0  0.00000000000E+00  0.00000000000E+00  0.34996269501E-01  0.35000000000E-01  0.51099999109E-03 0. -1.
       11   -1    0    0    0    0 -0.00000000000E+00 -0.00000000000E+00 -0.34996269501E-01  0.35000000000E-01  0.51099999109E-03 0.  1.
       22    1    1    2    0    0  0.18992987568E-02  0.25642210358E-03 -0.34947487889E-01  0.34999999969E-01  0.00000000000E+00 0.  1.
       22    1    1    2    0    0 -0.18992992138E-02 -0.25642151106E-03  0.34947477129E-01  0.34999989245E-01  0.00000000000E+00 0. -1.
       22    1    1    2    0    0  0.45707606692E-09 -0.59251425554E-09  0.10759881660E-07  0.10785872473E-07  0.00000000000E+00 0. -1.
</event>
<event>
 5   0  0.3490748E+06  0.9118800E+02  0.7546771E-02  0.1180000E+00
      -11   -1    0    0    0    0  0.00000000000E+00  0.00000000000E+00  0.34996269501E-01  0.35000000000E-01  0.51099999109E-03 0.  1.
       11   -1    0    0    0    0 -0.00000000000E+00 -0.00000000000E+00 -0.34996269501E-01  0.35000000000E-01  0.51099999109E-03 0.  1.
       22    1    1    2    0    0 -0.41519616465E-03  0.17471817847E-03 -0.34997100965E-01  0.34999999860E-01  0.00000000000E+00 0.  1.
       22    1    1    2    0    0  0.41517104797E-03 -0.17473490875E-03  0.34995961415E-01  0.34998860191E-01  0.00000000000E+00 0.  1.
       22    1    1    2    0    0  0.25116680306E-07  0.16730280664E-07  0.11395496983E-05  0.11399492379E-05  0.00000000000E+00 0. -1.
</event>
<event>
 5   0  0.3490748E+06  0.9118800E+02  0.7546771E-02  0.1180000E+00
      -11   -1    0    0    0    0  0.00000000000E+00  0.00000000000E+00  0.34996269501E-01  0.35000000000E-01  0.51099999109E-03 0.  1.
       11   -1    0    0    0    0 -0.00000000000E+00 -0.00000000000E+00 -0.34996269501E-01  0.35000000000E-01  0.51099999109E-03 0. -1.
       22    1    1    2    0    0  0.14313820649E-02 -0.39971051923E-02  0.34740915779E-01  0.34999384762E-01  0.00000000000E+00 0.  1.
       22    1    1    2    0    0  0.54127000706E-07 -0.53990757422E-07  0.61092186153E-06  0.61568681567E-06  0.00000000000E+00 0.  1.
       22    1    1    2    0    0 -0.14314361919E-02  0.39971591831E-02 -0.34741526701E-01  0.34999999552E-01  0.00000000000E+00 0. -1.
</event>
<event>
 5   0  0.3490748E+06  0.9118800E+02  0.7546771E-02  0.1180000E+00
      -11   -1    0    0    0    0  0.00000000000E+00  0.00000000000E+00  0.34996269501E-01  0.35000000000E-01  0.51099999109E-03 0. -1.
       11   -1    0    0    0    0 -0.00000000000E+00 -0.00000000000E+00 -0.34996269501E-01  0.35000000000E-01  0.51099999109E-03 0.  1.
       22    1    1    2    0    0  0.32741060641E-04  0.82292521898E-04  0.15863649062E-03  0.18168536641E-03  0.00000000000E+00 0. -1.
       22    1    1    2    0    0 -0.86459538080E-03 -0.20332887865E-05 -0.34978119665E-01  0.34988803703E-01  0.00000000000E+00 0.  1.
       22    1    1    2    0    0  0.83185432016E-03 -0.80259233112E-04  0.34819483174E-01  0.34829510930E-01  0.00000000000E+00 0. -1.
</event>
<event>
 5   0  0.3490748E+06  0.9118800E+02  0.7546771E-02  0.1180000E+00
      -11   -1    0    0    0    0  0.00000000000E+00  0.00000000000E+00  0.34996269501E-01  0.35000000000E-01  0.51099999109E-03 0.  1.
       11   -1    0    0    0    0 -0.00000000000E+00 -0.00000000000E+00 -0.34996269501E-01  0.35000000000E-01  0.51099999109E-03 0. -1.
       22    1    1    2    0    0  0.38427073313E-02  0.24160312301E-02  0.34704104357E-01  0.34999692367E-01  0.00000000000E+00 0.  1.
       22    1    1    2    0    0 -0.38427632626E-02 -0.24160839659E-02 -0.34704403503E-01  0.34999998768E-01  0.00000000000E+00 0. -1.
       22    1    1    2    0    0  0.55931307105E-07  0.52735803623E-07  0.29914587877E-06  0.30886507230E-06  0.00000000000E+00 0.  1.
</event>
<event>
 5   0  0.3490748E+06  0.9118800E+02  0.7546771E-02  0.1180000E+00
      -11   -1    0    0    0    0  0.00000000000E+00  0.00000000000E+00  0.34996269501E-01  0.35000000000E-01  0.51099999109E-03 0. -1.
       11   -1    0    0    0    0 -0.00000000000E+00 -0.00000000000E+00 -0.34996269501E-01  0.35000000000E-01  0.51099999109E-03 0.  1.
       22    1    1    2    0    0 -0.94907090492E-03 -0.15761290641E-02 -0.34179963003E-01  0.34229443309E-01  0.00000000000E+00 0.  1.
       22    1    1    2    0    0  0.17835561761E-02  0.22255326001E-02  0.17983110821E-02  0.33716451082E-02  0.00000000000E+00 0. -1.
       22    1    1    2    0    0 -0.83448527121E-03 -0.64940353600E-03  0.32381651921E-01  0.32398911582E-01  0.00000000000E+00 0. -1.
</event>
<event>
 5   0  0.3490748E+06  0.9118800E+02  0.7546771E-02  0.1180000E+00
      -11   -1    0    0    0    0  0.00000000000E+00  0.00000000000E+00  0.34996269501E-01  0.35000000000E-01  0.51099999109E-03 0. -1.
       11   -1    0    0    0    0 -0.00000000000E+00 -0.00000000000E+00 -0.34996269501E-01  0.35000000000E-01  0.51099999109E-03 0.  1.
       22    1    1    2    0    0 -0.69703036301E-03  0.10394499278E-02 -0.34977615958E-01  0.34999998937E-01  0.00000000000E+00 0.  1.
       22    1    1    2    0    0  0.15950368344E-08  0.48250341964E-08  0.54163864646E-08  0.74271353720E-08  0.00000000000E+00 0.  1.
       22    1    1    2    0    0  0.69702876797E-03 -0.10394547528E-02  0.34977610542E-01  0.34999993636E-01  0.00000000000E+00 0. -1.
</event>
<event>
 5   0  0.3490748E+06  0.9118800E+02  0.7546771E-02  0.1180000E+00
      -11   -1    0    0    0    0  0.00000000000E+00  0.00000000000E+00  0.34996269501E-01  0.35000000000E-01  0.51099999109E-03 0. -1.
       11   -1    0    0    0    0 -0.00000000000E+00 -0.00000000000E+00 -0.34996269501E-01  0.35000000000E-01  0.51099999109E-03 0.  1.
       22    1    1    2    0    0 -0.19047555713E-02  0.87770804023E-03 -0.34936882328E-01  0.34999774457E-01  0.00000000000E+00 0.  1.
       22    1    1    2    0    0  0.37773995790E-06  0.35364353583E-05  0.17862315913E-04  0.18212945733E-04  0.00000000000E+00 0.  1.
       22    1    1    2    0    0  0.19043778314E-02 -0.88124447559E-03  0.34919020012E-01  0.34982012598E-01  0.00000000000E+00 0. -1.
</event>
<event>
 5   0  0.3490748E+06  0.9118800E+02  0.7546771E-02  0.1180000E+00
      -11   -1    0    0    0    0  0.00000000000E+00  0.00000000000E+00  0.34996269501E-01  0.35000000000E-01  0.51099999109E-03 0. -1.
       11   -1    0    0    0    0 -0.00000000000E+00 -0.00000000000E+00 -0.34996269501E-01  0.35000000000E-01  0.51099999109E-03 0.  1.
       22    1    1    2    0    0 -0.37144306874E-02 -0.22305218208E-01 -0.20892527899E-01  0.30786644452E-01  0.00000000000E+00 0.  1.
       22    1    1    2    0    0 -0.22109453585E-03  0.28318947719E-03 -0.49899228656E-02  0.50028401212E-02  0.00000000000E+00 0.  1.
       22    1    1    2    0    0  0.39355252232E-02  0.22022028730E-01  0.25882450764E-01  0.34210515427E-01  0.00000000000E+00 0. -1.
</event>
<event>
 5   0  0.3490748E+06  0.9118800E+02  0.7546771E-02  0.1180000E+00
      -11   -1    0    0    0    0  0.00000000000E+00  0.00000000000E+00  0.34996269501E-01  0.35000000000E-01  0.51099999109E-03 0. -1.
       11   -1    0    0    0    0 -0.00000000000E+00 -0.00000000000E+00 -0.34996269501E-01  0.35000000000E-01  0.51099999109E-03 0.  1.
       22    1    1    2    0    0  0.34706779099E-03 -0.17564397265E-03  0.11556859663E-02  0.12193920245E-02  0.00000000000E+00 0.  1.
       22    1    1    2    0    0 -0.19424187632E-02  0.21180134731E-01 -0.27680890545E-01  0.34908491793E-01  0.00000000000E+00 0.  1.
       22    1    1    2    0    0  0.15953509722E-02 -0.21004490759E-01  0.26525204579E-01  0.33872116183E-01  0.00000000000E+00 0. -1.
</event>
<event>
 5   0  0.3490748E+06  0.9118800E+02  0.7546771E-02  0.1180000E+00
      -11   -1    0    0    0    0  0.00000000000E+00  0.00000000000E+00  0.34996269501E-01  0.35000000000E-01  0.51099999109E-03 0.  1.
       11   -1    0    0    0    0 -0.00000000000E+00 -0.00000000000E+00 -0.34996269501E-01  0.35000000000E-01  0.51099999109E-03 0. -1.
       22    1    1    2    0    0  0.23462988243E-01  0.12634734179E-02  0.25927943843E-01  0.34990948177E-01  0.00000000000E+00 0.  1.
       22    1    1    2    0    0 -0.23474751281E-01 -0.12722531763E-02 -0.25909849085E-01  0.34985752178E-01  0.00000000000E+00 0. -1.
       22    1    1    2    0    0  0.11763037644E-04  0.87797583765E-05 -0.18094757793E-04  0.23299645305E-04  0.00000000000E+00 0.  1.
</event>
<event>
 5   0  0.3490748E+06  0.9118800E+02  0.7546771E-02  0.1180000E+00
      -11   -1    0    0    0    0  0.00000000000E+00  0.00000000000E+00  0.34996269501E-01  0.35000000000E-01  0.51099999109E-03 0.  1.
       11   -1    0    0    0    0 -0.00000000000E+00 -0.00000000000E+00 -0.34996269501E-01  0.35000000000E-01  0.51099999109E-03 0. -1.
       22    1    1    2    0    0 -0.62232100047E-03 -0.76383916084E-03 -0.34841111325E-01  0.34855039407E-01  0.00000000000E+00 0. -1.
       22    1    1    2    0    0  0.17249240567E-03 -0.12121613663E-03 -0.68164334716E-04  0.22157021081E-03  0.00000000000E+00 0.  1.
       22    1    1    2    0    0  0.44982859481E-03  0.88505529747E-03  0.34909275660E-01  0.34923390382E-01  0.00000000000E+00 0.  1.
</event>
<event>
 5   0  0.3490748E+06  0.9118800E+02  0.7546771E-02  0.1180000E+00
      -11   -1    0    0    0    0  0.00000000000E+00  0.00000000000E+00  0.34996269501E-01  0.35000000000E-01  0.51099999109E-03 0. -1.
       11   -1    0    0    0    0 -0.00000000000E+00 -0.00000000000E+00 -0.34996269501E-01  0.35000000000E-01  0.51099999109E-03 0. -1.
       22    1    1    2    0    0  0.21228699032E-10  0.34512437226E-08  0.48035132308E-07  0.48158960431E-07  0.00000000000E+00 0.  1.
       22    1    1    2    0    0 -0.14489651581E-03 -0.52674121160E-03  0.34995688076E-01  0.34999951932E-01  0.00000000000E+00 0. -1.
       22    1    1    2    0    0  0.14489649458E-03  0.52673776036E-03 -0.34995736111E-01  0.34999999909E-01  0.00000000000E+00 0. -1.
</event>
<event>
 5   0  0.3490748E+06  0.9118800E+02  0.7546771E-02  0.1180000E+00
      -11   -1    0    0    0    0  0.00000000000E+00  0.00000000000E+00  0.34996269501E-01  0.35000000000E-01  0.51099999109E-03 0. -1.
       11   -1    0    0    0    0 -0.00000000000E+00 -0.00000000000E+00 -0.34996269501E-01  0.35000000000E-01  0.51099999109E-03 0.  1.
       22    1    1    2    0    0  0.60803574856E-04 -0.64069075050E-04  0.24688133145E-02  0.24703929045E-02  0.00000000000E+00 0.  1.
       22    1    1    2    0    0 -0.32595008909E-01  0.31242835963E-02 -0.95189052946E-02  0.34099931258E-01  0.00000000000E+00 0.  1.
       22    1    1    2    0    0  0.32534205335E-01 -0.30602145213E-02  0.70500919801E-02  0.33429675837E-01  0.00000000000E+00 0. -1.
</event>
<event>
 5   0  0.3490748E+06  0.9118800E+02  0.7546771E-02  0.1180000E+00
      -11   -1    0    0    0    0  0.00000000000E+00  0.00000000000E+00  0.34996269501E-01  0.35000000000E-01  0.51099999109E-03 0. -1.
       11   -1    0    0    0    0 -0.00000000000E+00 -0.00000000000E+00 -0.34996269501E-01  0.35000000000E-01  0.51099999109E-03 0.  1.
       22    1    1    2    0    0  0.72864874593E-08  0.14523037660E-07  0.20400964062E-05  0.20401611108E-05  0.00000000000E+00 0.  1.
       22    1    1    2    0    0  0.14807925355E-03  0.17367167543E-02 -0.34956569773E-01  0.34999998326E-01  0.00000000000E+00 0.  1.
       22    1    1    2    0    0 -0.14808654003E-03 -0.17367312773E-02  0.34954529676E-01  0.34997961513E-01  0.00000000000E+00 0. -1.
</event>
<event>
 5   0  0.3490748E+06  0.9118800E+02  0.7546771E-02  0.1180000E+00
      -11   -1    0    0    0    0  0.00000000000E+00  0.00000000000E+00  0.34996269501E-01  0.35000000000E-01  0.51099999109E-03 0.  1.
       11   -1    0    0    0    0 -0.00000000000E+00 -0.00000000000E+00 -0.34996269501E-01  0.35000000000E-01  0.51099999109E-03 0. -1.
       22    1    1    2    0    0  0.42934499330E-02 -0.25860327448E-02 -0.34639085442E-01  0.34999821684E-01  0.00000000000E+00 0. -1.
       22    1    1    2    0    0 -0.42931462987E-02  0.25855452795E-02  0.34638914322E-01  0.34999579068E-01  0.00000000000E+00 0.  1.
       22    1    1    2    0    0 -0.30363428656E-06  0.48746535136E-06  0.17111995668E-06  0.59924810248E-06  0.00000000000E+00 0.  1.
</event>
<event>
 5   0  0.3490748E+06  0.9118800E+02  0.7546771E-02  0.1180000E+00
      -11   -1    0    0    0    0  0.00000000000E+00  0.00000000000E+00  0.34996269501E-01  0.35000000000E-01  0.51099999109E-03 0.  1.
       11   -1    0    0    0    0 -0.00000000000E+00 -0.00000000000E+00 -0.34996269501E-01  0.35000000000E-01  0.51099999109E-03 0. -1.
       22    1    1    2    0    0 -0.14419858594E-02 -0.69448368297E-03  0.23317475670E-01  0.23372340543E-01  0.00000000000E+00 0.  1.
       22    1    1    2    0    0  0.17881793356E-02 -0.43009542041E-02  0.11000652118E-01  0.11946134916E-01  0.00000000000E+00 0.  1.
       22    1    1    2    0    0 -0.34619347623E-03  0.49954378870E-02 -0.34318127789E-01  0.34681524541E-01  0.00000000000E+00 0. -1.
</event>
<event>
 5   0  0.3490748E+06  0.9118800E+02  0.7546771E-02  0.1180000E+00
      -11   -1    0    0    0    0  0.00000000000E+00  0.00000000000E+00  0.34996269501E-01  0.35000000000E-01  0.51099999109E-03 0. -1.
       11   -1    0    0    0    0 -0.00000000000E+00 -0.00000000000E+00 -0.34996269501E-01  0.35000000000E-01  0.51099999109E-03 0.  1.
       22    1    1    2    0    0 -0.24573947324E-04  0.10187885742E-04  0.46106248327E-06  0.26606098579E-04  0.00000000000E+00 0.  1.
       22    1    1    2    0    0  0.90026318631E-03 -0.78177231602E-02 -0.34091917382E-01  0.34988370925E-01  0.00000000000E+00 0.  1.
       22    1    1    2    0    0 -0.87568923898E-03  0.78075352744E-02  0.34091456319E-01  0.34985022977E-01  0.00000000000E+00 0. -1.
</event>
<event>
 5   0  0.3490748E+06  0.9118800E+02  0.7546771E-02  0.1180000E+00
      -11   -1    0    0    0    0  0.00000000000E+00  0.00000000000E+00  0.34996269501E-01  0.35000000000E-01  0.51099999109E-03 0. -1.
       11   -1    0    0    0    0 -0.00000000000E+00 -0.00000000000E+00 -0.34996269501E-01  0.35000000000E-01  0.51099999109E-03 0.  1.
       22    1    1    2    0    0 -0.46618182410E-03 -0.52308782066E-04  0.34930281830E-01  0.34933431702E-01  0.00000000000E+00 0. -1.
       22    1    1    2    0    0  0.57237422192E-03  0.21050632503E-03 -0.34857144693E-01  0.34862479277E-01  0.00000000000E+00 0.  1.
       22    1    1    2    0    0 -0.10619239782E-03 -0.15819754297E-03 -0.73137137357E-04  0.20408902179E-03  0.00000000000E+00 0. -1.
</event>
<event>
 5   0  0.3490748E+06  0.9118800E+02  0.7546771E-02  0.1180000E+00
      -11   -1    0    0    0    0  0.00000000000E+00  0.00000000000E+00  0.34996269501E-01  0.35000000000E-01  0.51099999109E-03 0.  1.
       11   -1    0    0    0    0 -0.00000000000E+00 -0.00000000000E+00 -0.34996269501E-01  0.35000000000E-01  0.51099999109E-03 0. -1.
       22    1    1    2    0    0  0.37246594781E-02  0.14048201541E-03 -0.34519532882E-01  0.34720181074E-01  0.00000000000E+00 0. -1.
       22    1    1    2    0    0 -0.33683217035E-02  0.29606026989E-03  0.34550399044E-01  0.34715462216E-01  0.00000000000E+00 0.  1.
       22    1    1    2    0    0 -0.35633777464E-03 -0.43654228530E-03 -0.30866161731E-04  0.56435671028E-03  0.00000000000E+00 0. -1.
</event>
<event>
 5   0  0.3490748E+06  0.9118800E+02  0.7546771E-02  0.1180000E+00
      -11   -1    0    0    0    0  0.00000000000E+00  0.00000000000E+00  0.34996269501E-01  0.35000000000E-01  0.51099999109E-03 0. -1.
       11   -1    0    0    0    0 -0.00000000000E+00 -0.00000000000E+00 -0.34996269501E-01  0.35000000000E-01  0.51099999109E-03 0.  1.
       22    1    1    2    0    0  0.94577817269E-04 -0.25383410400E-04  0.46981888179E-02  0.46992092366E-02  0.00000000000E+00 0.  1.
       22    1    1    2    0    0  0.99925278261E-02  0.15568659702E-01  0.24511830892E-01  0.30709341103E-01  0.00000000000E+00 0. -1.
       22    1    1    2    0    0 -0.10087105643E-01 -0.15543276292E-01 -0.29210019710E-01  0.34591449660E-01  0.00000000000E+00 0.  1.
</event>
<event>
 5   0  0.3490748E+06  0.9118800E+02  0.7546771E-02  0.1180000E+00
      -11   -1    0    0    0    0  0.00000000000E+00  0.00000000000E+00  0.34996269501E-01  0.35000000000E-01  0.51099999109E-03 0. -1.
       11   -1    0    0    0    0 -0.00000000000E+00 -0.00000000000E+00 -0.34996269501E-01  0.35000000000E-01  0.51099999109E-03 0. -1.
       22    1    1    2    0    0 -0.45875540814E-04  0.13482585385E-04 -0.23131255608E-04  0.53116855514E-04  0.00000000000E+00 0. -1.
       22    1    1    2    0    0  0.00000000000E+00  0.00000000000E+00  0.34985693041E-01  0.34984288662E-01  0.00000000000E+00 0. -1.
       22    1    1    2    0    0  0.45875540814E-04 -0.13482585385E-04 -0.34962561786E-01  0.34962594483E-01  0.00000000000E+00 0. -1.
</event>
<event>
 5   0  0.3490748E+06  0.9118800E+02  0.7546771E-02  0.1180000E+00
      -11   -1    0    0    0    0  0.00000000000E+00  0.00000000000E+00  0.34996269501E-01  0.35000000000E-01  0.51099999109E-03 0.  1.
       11   -1    0    0    0    0 -0.00000000000E+00 -0.00000000000E+00 -0.34996269501E-01  0.35000000000E-01  0.51099999109E-03 0. -1.
       22    1    1    2    0    0 -0.51141041171E-02 -0.15379755642E-02  0.34588613397E-01  0.34998451487E-01  0.00000000000E+00 0.  1.
       22    1    1    2    0    0  0.35029241577E-06 -0.74651214812E-07  0.15613288194E-05  0.16018817880E-05  0.00000000000E+00 0.  1.
       22    1    1    2    0    0  0.51137538247E-02  0.15380502154E-02 -0.34590174726E-01  0.34999946631E-01  0.00000000000E+00 0. -1.
</event>
<event>
 5   0  0.3490748E+06  0.9118800E+02  0.7546771E-02  0.1180000E+00
      -11   -1    0    0    0    0  0.00000000000E+00  0.00000000000E+00  0.34996269501E-01  0.35000000000E-01  0.51099999109E-03 0. -1.
       11   -1    0    0    0    0 -0.00000000000E+00 -0.00000000000E+00 -0.34996269501E-01  0.35000000000E-01  0.51099999109E-03 0.  1.
       22    1    1    2    0    0 -0.12554210853E-04 -0.42464884254E-05  0.16906935276E-03  0.16958799166E-03  0.00000000000E+00 0.  1.
       22    1    1    2    0    0 -0.89066143954E-04  0.24589499099E-01 -0.24874049807E-01  0.34976702997E-01  0.00000000000E+00 0.  1.
       22    1    1    2    0    0  0.10162035481E-03 -0.24585252611E-01  0.24704980454E-01  0.34853709012E-01  0.00000000000E+00 0. -1.
</event>
<event>
 5   0  0.3490748E+06  0.9118800E+02  0.7546771E-02  0.1180000E+00
      -11   -1    0    0    0    0  0.00000000000E+00  0.00000000000E+00  0.34996269501E-01  0.35000000000E-01  0.51099999109E-03 0.  1.
       11   -1    0    0    0    0 -0.00000000000E+00 -0.00000000000E+00 -0.34996269501E-01  0.35000000000E-01  0.51099999109E-03 0.  1.
       22    1    1    2    0    0  0.11870143116E-11 -0.24521007936E-12 -0.35001813357E-01  0.34999998332E-01  0.00000000000E+00 0.  1.
       22    1    1    2    0    0  0.14981827764E-07 -0.30949038601E-08  0.33380105192E-07  0.36718728405E-07  0.00000000000E+00 0. -1.
       22    1    1    2    0    0 -0.14983014779E-07  0.30951490701E-08  0.35001779977E-01  0.34999964950E-01  0.00000000000E+00 0.  1.
</event>
<event>
 5   0  0.3490748E+06  0.9118800E+02  0.7546771E-02  0.1180000E+00
      -11   -1    0    0    0    0  0.00000000000E+00  0.00000000000E+00  0.34996269501E-01  0.35000000000E-01  0.51099999109E-03 0.  1.
       11   -1    0    0    0    0 -0.00000000000E+00 -0.00000000000E+00 -0.34996269501E-01  0.35000000000E-01  0.51099999109E-03 0. -1.
       22    1    1    2    0    0  0.61947720076E-02 -0.69278088836E-02  0.33684354737E-01  0.34942888979E-01  0.00000000000E+00 0.  1.
       22    1    1    2    0    0 -0.62148324422E-02  0.68798528584E-02 -0.30631944403E-01  0.32004258084E-01  0.00000000000E+00 0. -1.
       22    1    1    2    0    0  0.20060434583E-04  0.47956025177E-04 -0.30524103345E-02  0.30528529364E-02  0.00000000000E+00 0. -1.
</event>
<event>
 5   0  0.3490748E+06  0.9118800E+02  0.7546771E-02  0.1180000E+00
      -11   -1    0    0    0    0  0.00000000000E+00  0.00000000000E+00  0.34996269501E-01  0.35000000000E-01  0.51099999109E-03 0.  1.
       11   -1    0    0    0    0 -0.00000000000E+00 -0.00000000000E+00 -0.34996269501E-01  0.35000000000E-01  0.51099999109E-03 0. -1.
       22    1    1    2    0    0 -0.30923309911E-02 -0.11908651545E-02 -0.34841875873E-01  0.34999099775E-01  0.00000000000E+00 0. -1.
       22    1    1    2    0    0  0.30967022248E-02  0.11859486112E-02  0.34828401611E-01  0.34985905698E-01  0.00000000000E+00 0.  1.
       22    1    1    2    0    0 -0.43712337207E-05  0.49165433612E-05  0.13474261858E-04  0.14994526184E-04  0.00000000000E+00 0.  1.
</event>
<event>
 5   0  0.3490748E+06  0.9118800E+02  0.7546771E-02  0.1180000E+00
      -11   -1    0    0    0    0  0.00000000000E+00  0.00000000000E+00  0.34996269501E-01  0.35000000000E-01  0.51099999109E-03 0.  1.
       11   -1    0    0    0    0 -0.00000000000E+00 -0.00000000000E+00 -0.34996269501E-01  0.35000000000E-01  0.51099999109E-03 0. -1.
       22    1    1    2    0    0 -0.24892781760E-02  0.68158991854E-02  0.32744219826E-01  0.33538588515E-01  0.00000000000E+00 0.  1.
       22    1    1    2    0    0  0.25056986224E-02  0.42305206475E-02 -0.85098561856E-02  0.98281983515E-02  0.00000000000E+00 0.  1.
       22    1    1    2    0    0 -0.16420446396E-04 -0.11046419833E-01 -0.24234363641E-01  0.26633213134E-01  0.00000000000E+00 0. -1.
</event>
<event>
 5   0  0.3490748E+06  0.9118800E+02  0.7546771E-02  0.1180000E+00
      -11   -1    0    0    0    0  0.00000000000E+00  0.00000000000E+00  0.34996269501E-01  0.35000000000E-01  0.51099999109E-03 0.  1.
       11   -1    0    0    0    0 -0.00000000000E+00 -0.00000000000E+00 -0.34996269501E-01  0.35000000000E-01  0.51099999109E-03 0. -1.
       22    1    1    2    0    0 -0.80392623961E-02  0.43460964018E-02  0.33785769382E-01  0.34999950093E-01  0.00000000000E+00 0.  1.
       22    1    1    2    0    0  0.28248189036E-07 -0.51025893845E-07  0.42144060350E-07  0.71956402420E-07  0.00000000000E+00 0.  1.
       22    1    1    2    0    0  0.80392341479E-02 -0.43460453759E-02 -0.33785811526E-01  0.34999977951E-01  0.00000000000E+00 0. -1.
</event>
<event>
 5   0  0.3490748E+06  0.9118800E+02  0.7546771E-02  0.1180000E+00
      -11   -1    0    0    0    0  0.00000000000E+00  0.00000000000E+00  0.34996269501E-01  0.35000000000E-01  0.51099999109E-03 0.  1.
       11   -1    0    0    0    0 -0.00000000000E+00 -0.00000000000E+00 -0.34996269501E-01  0.35000000000E-01  0.51099999109E-03 0. -1.
       22    1    1    2    0    0  0.12795765124E-02 -0.58503241782E-03  0.33818274986E-01  0.33847530220E-01  0.00000000000E+00 0.  1.
       22    1    1    2    0    0  0.10051685735E-02 -0.11366677254E-02  0.58811664367E-03  0.16273470944E-02  0.00000000000E+00 0.  1.
       22    1    1    2    0    0 -0.22847450860E-02  0.17217001432E-02 -0.34406391629E-01  0.34525122686E-01  0.00000000000E+00 0. -1.
</event>
<event>
 5   0  0.3490748E+06  0.9118800E+02  0.7546771E-02  0.1180000E+00
      -11   -1    0    0    0    0  0.00000000000E+00  0.00000000000E+00  0.34996269501E-01  0.35000000000E-01  0.51099999109E-03 0.  1.
       11   -1    0    0    0    0 -0.00000000000E+00 -0.00000000000E+00 -0.34996269501E-01  0.35000000000E-01  0.51099999109E-03 0.  1.
       22    1    1    2    0    0  0.14723793541E-03 -0.33220833578E-03  0.10750128838E-02  0.11347660941E-02  0.00000000000E+00 0. -1.
       22    1    1    2    0    0 -0.00000000000E+00  0.00000000000E+00  0.33894827760E-01  0.33893505381E-01  0.00000000000E+00 0.  1.
       22    1    1    2    0    0 -0.14723793541E-03  0.33220833578E-03 -0.34969840644E-01  0.34971728525E-01  0.00000000000E+00 0.  1.
</event>
<event>
 5   0  0.3490748E+06  0.9118800E+02  0.7546771E-02  0.1180000E+00
      -11   -1    0    0    0    0  0.00000000000E+00  0.00000000000E+00  0.34996269501E-01  0.35000000000E-01  0.51099999109E-03 0. -1.
       11   -1    0    0    0    0 -0.00000000000E+00 -0.00000000000E+00 -0.34996269501E-01  0.35000000000E-01  0.51099999109E-03 0.  1.
       22    1    1    2    0    0 -0.50480553077E-03 -0.56240646367E-03  0.34991826937E-01  0.34999986887E-01  0.00000000000E+00 0. -1.
       22    1    1    2    0    0  0.50480553197E-03  0.56240827652E-03 -0.34991839975E-01  0.34999999950E-01  0.00000000000E+00 0.  1.
       22    1    1    2    0    0 -0.12045503626E-11 -0.18128497885E-08  0.13037637513E-07  0.13163070224E-07  0.00000000000E+00 0. -1.
</event>
<event>
 5   0  0.3490748E+06  0.9118800E+02  0.7546771E-02  0.1180000E+00
      -11   -1    0    0    0    0  0.00000000000E+00  0.00000000000E+00  0.34996269501E-01  0.35000000000E-01  0.51099999109E-03 0. -1.
       11   -1    0    0    0    0 -0.00000000000E+00 -0.00000000000E+00 -0.34996269501E-01  0.35000000000E-01  0.51099999109E-03 0.  1.
       22    1    1    2    0    0  0.19918555115E-05 -0.93776096582E-06  0.34347846505E-05  0.40797830338E-05  0.00000000000E+00 0.  1.
       22    1    1    2    0    0  0.16072154115E-01 -0.18159950229E-02  0.31033931758E-01  0.34995955426E-01  0.00000000000E+00 0. -1.
       22    1    1    2    0    0 -0.16074145971E-01  0.18169327839E-02 -0.31037366543E-01  0.34999964791E-01  0.00000000000E+00 0.  1.
</event>
<event>
 5   0  0.3490748E+06  0.9118800E+02  0.7546771E-02  0.1180000E+00
      -11   -1    0    0    0    0  0.00000000000E+00  0.00000000000E+00  0.34996269501E-01  0.35000000000E-01  0.51099999109E-03 0. -1.
       11   -1    0    0    0    0 -0.00000000000E+00 -0.00000000000E+00 -0.34996269501E-01  0.35000000000E-01  0.51099999109E-03 0.  1.
       22    1    1    2    0    0 -0.48153006147E-06 -0.36838139450E-05 -0.18625176818E-04  0.18992092246E-04  0.00000000000E+00 0. -1.
       22    1    1    2    0    0  0.26961616040E-01  0.18759906188E-01 -0.12055286395E-01  0.34988465953E-01  0.00000000000E+00 0.  1.
       22    1    1    2    0    0 -0.26961134510E-01 -0.18756222374E-01  0.12073911572E-01  0.34992541955E-01  0.00000000000E+00 0. -1.
</event>
<event>
 5   0  0.3490748E+06  0.9118800E+02  0.7546771E-02  0.1180000E+00
      -11   -1    0    0    0    0  0.00000000000E+00  0.00000000000E+00  0.34996269501E-01  0.35000000000E-01  0.51099999109E-03 0.  1.
       11   -1    0    0    0    0 -0.00000000000E+00 -0.00000000000E+00 -0.34996269501E-01  0.35000000000E-01  0.51099999109E-03 0. -1.
       22    1    1    2    0    0 -0.13795729406E-07 -0.65473436940E-08  0.12534249063E-06  0.12626927503E-06  0.00000000000E+00 0.  1.
       22    1    1    2    0    0  0.11309920862E-02  0.92816095503E-04 -0.34981598356E-01  0.34999999735E-01  0.00000000000E+00 0. -1.
       22    1    1    2    0    0 -0.11309782905E-02 -0.92809548159E-04  0.34981473014E-01  0.34999873995E-01  0.00000000000E+00 0.  1.
</event>
<event>
 5   0  0.3490748E+06  0.9118800E+02  0.7546771E-02  0.1180000E+00
      -11   -1    0    0    0    0  0.00000000000E+00  0.00000000000E+00  0.34996269501E-01  0.35000000000E-01  0.51099999109E-03 0. -1.
       11   -1    0    0    0    0 -0.00000000000E+00 -0.00000000000E+00 -0.34996269501E-01  0.35000000000E-01  0.51099999109E-03 0.  1.
       22    1    1    2    0    0  0.14815226197E-04 -0.16673867264E-05  0.31729041994E-03  0.31764049127E-03  0.00000000000E+00 0.  1.
       22    1    1    2    0    0 -0.74237779463E-03 -0.25008506565E-02 -0.34902119920E-01  0.34999476477E-01  0.00000000000E+00 0.  1.
       22    1    1    2    0    0  0.72756256843E-03  0.25025180432E-02  0.34584829500E-01  0.34682883031E-01  0.00000000000E+00 0. -1.
</event>
<event>
 5   0  0.3490748E+06  0.9118800E+02  0.7546771E-02  0.1180000E+00
      -11   -1    0    0    0    0  0.00000000000E+00  0.00000000000E+00  0.34996269501E-01  0.35000000000E-01  0.51099999109E-03 0.  1.
       11   -1    0    0    0    0 -0.00000000000E+00 -0.00000000000E+00 -0.34996269501E-01  0.35000000000E-01  0.51099999109E-03 0. -1.
       22    1    1    2    0    0 -0.24689720939E-09 -0.37553991621E-09  0.47063595720E-09  0.65075853040E-09  0.00000000000E+00 0.  1.
       22    1    1    2    0    0  0.29179921840E-01  0.17489818471E-01 -0.82242571784E-02  0.34999999927E-01  0.00000000000E+00 0. -1.
       22    1    1    2    0    0 -0.29179921593E-01 -0.17489818096E-01  0.82242567078E-02  0.34999999423E-01  0.00000000000E+00 0.  1.
</event>
<event>
 5   0  0.3490748E+06  0.9118800E+02  0.7546771E-02  0.1180000E+00
      -11   -1    0    0    0    0  0.00000000000E+00  0.00000000000E+00  0.34996269501E-01  0.35000000000E-01  0.51099999109E-03 0.  1.
       11   -1    0    0    0    0 -0.00000000000E+00 -0.00000000000E+00 -0.34996269501E-01  0.35000000000E-01  0.51099999109E-03 0. -1.
       22    1    1    2    0    0  0.10272562197E-02 -0.73320442067E-03 -0.34561189811E-01  0.34584225959E-01  0.00000000000E+00 0. -1.
       22    1    1    2    0    0 -0.61714445368E-04  0.16202396662E-03 -0.40032907499E-03  0.43626116812E-03  0.00000000000E+00 0.  1.
       22    1    1    2    0    0 -0.96554177435E-03  0.57118045405E-03  0.34961518886E-01  0.34979512873E-01  0.00000000000E+00 0.  1.
</event>
<event>
 5   0  0.3490748E+06  0.9118800E+02  0.7546771E-02  0.1180000E+00
      -11   -1    0    0    0    0  0.00000000000E+00  0.00000000000E+00  0.34996269501E-01  0.35000000000E-01  0.51099999109E-03 0. -1.
       11   -1    0    0    0    0 -0.00000000000E+00 -0.00000000000E+00 -0.34996269501E-01  0.35000000000E-01  0.51099999109E-03 0.  1.
       22    1    1    2    0    0  0.16601446177E-06  0.57902566201E-06  0.23793666122E-04  0.23801289440E-04  0.00000000000E+00 0.  1.
       22    1    1    2    0    0  0.33175042157E-02 -0.32826940499E-01  0.11631623622E-01  0.34984404023E-01  0.00000000000E+00 0. -1.
       22    1    1    2    0    0 -0.33176702302E-02  0.32826361473E-01 -0.11655417288E-01  0.34991794688E-01  0.00000000000E+00 0.  1.
</event>
<event>
 5   0  0.3490748E+06  0.9118800E+02  0.7546771E-02  0.1180000E+00
      -11   -1    0    0    0    0  0.00000000000E+00  0.00000000000E+00  0.34996269501E-01  0.35000000000E-01  0.51099999109E-03 0.  1.
       11   -1    0    0    0    0 -0.00000000000E+00 -0.00000000000E+00 -0.34996269501E-01  0.35000000000E-01  0.51099999109E-03 0. -1.
       22    1    1    2    0    0 -0.29868467380E-02 -0.49502368962E-02 -0.34519166376E-01  0.34999984944E-01  0.00000000000E+00 0. -1.
       22    1    1    2    0    0 -0.58325131851E-07  0.54659529453E-07  0.84935559344E-07  0.11663419056E-06  0.00000000000E+00 0. -1.
       22    1    1    2    0    0  0.29869050631E-02  0.49501822367E-02  0.34519081441E-01  0.34999898422E-01  0.00000000000E+00 0.  1.
</event>
<event>
 5   0  0.3490748E+06  0.9118800E+02  0.7546771E-02  0.1180000E+00
      -11   -1    0    0    0    0  0.00000000000E+00  0.00000000000E+00  0.34996269501E-01  0.35000000000E-01  0.51099999109E-03 0. -1.
       11   -1    0    0    0    0 -0.00000000000E+00 -0.00000000000E+00 -0.34996269501E-01  0.35000000000E-01  0.51099999109E-03 0.  1.
       22    1    1    2    0    0 -0.33896492863E-02 -0.21139049674E-01  0.27494628953E-01  0.34846861618E-01  0.00000000000E+00 0. -1.
       22    1    1    2    0    0  0.37225377249E-02  0.20972531196E-01 -0.25990941976E-01  0.33604068454E-01  0.00000000000E+00 0.  1.
       22    1    1    2    0    0 -0.33288843853E-03  0.16651847822E-03 -0.15036869763E-02  0.15490699271E-02  0.00000000000E+00 0. -1.
</event>
<event>
 5   0  0.3490748E+06  0.9118800E+02  0.7546771E-02  0.1180000E+00
      -11   -1    0    0    0    0  0.00000000000E+00  0.00000000000E+00  0.34996269501E-01  0.35000000000E-01  0.51099999109E-03 0. -1.
       11   -1    0    0    0    0 -0.00000000000E+00 -0.00000000000E+00 -0.34996269501E-01  0.35000000000E-01  0.51099999109E-03 0.  1.
       22    1    1    2    0    0 -0.11162110940E-02 -0.95842341413E-03 -0.12505750948E-01  0.12591993862E-01  0.00000000000E+00 0. -1.
       22    1    1    2    0    0  0.84520512771E-02  0.46967808902E-02  0.33494410749E-01  0.34862192601E-01  0.00000000000E+00 0. -1.
       22    1    1    2    0    0 -0.73358401831E-02 -0.37383574760E-02 -0.20988659801E-01  0.22545813537E-01  0.00000000000E+00 0.  1.
</event>
<event>
 5   0  0.3490748E+06  0.9118800E+02  0.7546771E-02  0.1180000E+00
      -11   -1    0    0    0    0  0.00000000000E+00  0.00000000000E+00  0.34996269501E-01  0.35000000000E-01  0.51099999109E-03 0.  1.
       11   -1    0    0    0    0 -0.00000000000E+00 -0.00000000000E+00 -0.34996269501E-01  0.35000000000E-01  0.51099999109E-03 0. -1.
       22    1    1    2    0    0  0.45175708096E-03  0.90589528777E-02  0.33804308494E-01  0.34999999778E-01  0.00000000000E+00 0.  1.
       22    1    1    2    0    0 -0.45175718155E-03 -0.90589523425E-02 -0.33804308531E-01  0.34999999676E-01  0.00000000000E+00 0. -1.
       22    1    1    2    0    0  0.10058906563E-09 -0.53518660613E-09  0.37015407740E-10  0.54581407449E-09  0.00000000000E+00 0. -1.
</event>
<event>
 5   0  0.3490748E+06  0.9118800E+02  0.7546771E-02  0.1180000E+00
      -11   -1    0    0    0    0  0.00000000000E+00  0.00000000000E+00  0.34996269501E-01  0.35000000000E-01  0.51099999109E-03 0. -1.
       11   -1    0    0    0    0 -0.00000000000E+00 -0.00000000000E+00 -0.34996269501E-01  0.35000000000E-01  0.51099999109E-03 0.  1.
       22    1    1    2    0    0 -0.37433784961E-04  0.76895794677E-04 -0.20022522196E-04  0.87835943045E-04  0.00000000000E+00 0.  1.
       22    1    1    2    0    0  0.41114301995E-03  0.39307758846E-03 -0.34941178061E-01  0.34945807658E-01  0.00000000000E+00 0.  1.
       22    1    1    2    0    0 -0.37370923499E-03 -0.46997338314E-03  0.34961200583E-01  0.34966356399E-01  0.00000000000E+00 0. -1.
</event>
<event>
 5   0  0.3490748E+06  0.9118800E+02  0.7546771E-02  0.1180000E+00
      -11   -1    0    0    0    0  0.00000000000E+00  0.00000000000E+00  0.34996269501E-01  0.35000000000E-01  0.51099999109E-03 0. -1.
       11   -1    0    0    0    0 -0.00000000000E+00 -0.00000000000E+00 -0.34996269501E-01  0.35000000000E-01  0.51099999109E-03 0.  1.
       22    1    1    2    0    0  0.20393841625E-02  0.94314107468E-03 -0.34926680146E-01  0.34998879823E-01  0.00000000000E+00 0.  1.
       22    1    1    2    0    0 -0.18345575534E-04  0.31203930217E-04  0.75031785413E-03  0.75119047360E-03  0.00000000000E+00 0. -1.
       22    1    1    2    0    0 -0.20210385869E-02 -0.97434500490E-03  0.34176362292E-01  0.34249929703E-01  0.00000000000E+00 0. -1.
</event>
<event>
 5   0  0.3490748E+06  0.9118800E+02  0.7546771E-02  0.1180000E+00
      -11   -1    0    0    0    0  0.00000000000E+00  0.00000000000E+00  0.34996269501E-01  0.35000000000E-01  0.51099999109E-03 0. -1.
       11   -1    0    0    0    0 -0.00000000000E+00 -0.00000000000E+00 -0.34996269501E-01  0.35000000000E-01  0.51099999109E-03 0.  1.
       22    1    1    2    0    0  0.16180033068E-08 -0.61462144804E-08  0.58439721736E-08  0.86339966357E-08  0.00000000000E+00 0. -1.
       22    1    1    2    0    0  0.68822431535E-02  0.16743771536E-02 -0.34275809073E-01  0.34999998532E-01  0.00000000000E+00 0.  1.
       22    1    1    2    0    0 -0.68822447715E-02 -0.16743710074E-02  0.34275803229E-01  0.34999992834E-01  0.00000000000E+00 0. -1.
</event>
<event>
 5   0  0.3490748E+06  0.9118800E+02  0.7546771E-02  0.1180000E+00
      -11   -1    0    0    0    0  0.00000000000E+00  0.00000000000E+00  0.34996269501E-01  0.35000000000E-01  0.51099999109E-03 0.  1.
       11   -1    0    0    0    0 -0.00000000000E+00 -0.00000000000E+00 -0.34996269501E-01  0.35000000000E-01  0.51099999109E-03 0. -1.
       22    1    1    2    0    0 -0.12559248461E-01 -0.93728761698E-03 -0.32655567238E-01  0.34999990023E-01  0.00000000000E+00 0. -1.
       22    1    1    2    0    0  0.12559238369E-01  0.93734779814E-03  0.32655404883E-01  0.34999836534E-01  0.00000000000E+00 0.  1.
       22    1    1    2    0    0  0.10092053383E-07 -0.60181159503E-07  0.16235474796E-06  0.17344360952E-06  0.00000000000E+00 0.  1.
</event>
<event>
 5   0  0.3490748E+06  0.9118800E+02  0.7546771E-02  0.1180000E+00
      -11   -1    0    0    0    0  0.00000000000E+00  0.00000000000E+00  0.34996269501E-01  0.35000000000E-01  0.51099999109E-03 0. -1.
       11   -1    0    0    0    0 -0.00000000000E+00 -0.00000000000E+00 -0.34996269501E-01  0.35000000000E-01  0.51099999109E-03 0.  1.
       22    1    1    2    0    0 -0.18205569606E-03 -0.14783993165E-03  0.69944234105E-03  0.73771302707E-03  0.00000000000E+00 0. -1.
       22    1    1    2    0    0  0.24359453440E-02 -0.26867792410E-03 -0.34899534252E-01  0.34985475680E-01  0.00000000000E+00 0.  1.
       22    1    1    2    0    0 -0.22538896480E-02  0.41651785575E-03  0.34200091911E-01  0.34276811293E-01  0.00000000000E+00 0. -1.
</event>
<event>
 5   0  0.3490748E+06  0.9118800E+02  0.7546771E-02  0.1180000E+00
      -11   -1    0    0    0    0  0.00000000000E+00  0.00000000000E+00  0.34996269501E-01  0.35000000000E-01  0.51099999109E-03 0. -1.
       11   -1    0    0    0    0 -0.00000000000E+00 -0.00000000000E+00 -0.34996269501E-01  0.35000000000E-01  0.51099999109E-03 0. -1.
       22    1    1    2    0    0  0.58438167488E-03 -0.23721535115E-03  0.34847880274E-01  0.34853587085E-01  0.00000000000E+00 0. -1.
       22    1    1    2    0    0  0.24509459162E-03 -0.12985975036E-03  0.92082758099E-05  0.27752424389E-03  0.00000000000E+00 0. -1.
       22    1    1    2    0    0 -0.82947626650E-03  0.36707510151E-03 -0.34857088550E-01  0.34868888671E-01  0.00000000000E+00 0. -1.
</event>
<event>
 5   0  0.3490748E+06  0.9118800E+02  0.7546771E-02  0.1180000E+00
      -11   -1    0    0    0    0  0.00000000000E+00  0.00000000000E+00  0.34996269501E-01  0.35000000000E-01  0.51099999109E-03 0. -1.
       11   -1    0    0    0    0 -0.00000000000E+00 -0.00000000000E+00 -0.34996269501E-01  0.35000000000E-01  0.51099999109E-03 0.  1.
       22    1    1    2    0    0 -0.12921037996E-01  0.48412951195E-02  0.32165320157E-01  0.34999988316E-01  0.00000000000E+00 0. -1.
       22    1    1    2    0    0 -0.10489481417E-08 -0.15700316229E-08  0.12011128201E-07  0.12158638582E-07  0.00000000000E+00 0. -1.
       22    1    1    2    0    0  0.12921039045E-01 -0.48412935495E-02 -0.32165332168E-01  0.34999999525E-01  0.00000000000E+00 0.  1.
</event>
<event>
 5   0  0.3490748E+06  0.9118800E+02  0.7546771E-02  0.1180000E+00
      -11   -1    0    0    0    0  0.00000000000E+00  0.00000000000E+00  0.34996269501E-01  0.35000000000E-01  0.51099999109E-03 0.  1.
       11   -1    0    0    0    0 -0.00000000000E+00 -0.00000000000E+00 -0.34996269501E-01  0.35000000000E-01  0.51099999109E-03 0. -1.
       22    1    1    2    0    0 -0.94772485504E-02  0.14072523108E-02  0.33654325330E-01  0.34991602029E-01  0.00000000000E+00 0.  1.
       22    1    1    2    0    0 -0.65371085837E-08 -0.14983748184E-05  0.85247063914E-05  0.86553907416E-05  0.00000000000E+00 0.  1.
       22    1    1    2    0    0  0.94772550875E-02 -0.14057539360E-02 -0.33662850036E-01  0.34999742580E-01  0.00000000000E+00 0. -1.
</event>
<event>
 5   0  0.3490748E+06  0.9118800E+02  0.7546771E-02  0.1180000E+00
      -11   -1    0    0    0    0  0.00000000000E+00  0.00000000000E+00  0.34996269501E-01  0.35000000000E-01  0.51099999109E-03 0. -1.
       11   -1    0    0    0    0 -0.00000000000E+00 -0.00000000000E+00 -0.34996269501E-01  0.35000000000E-01  0.51099999109E-03 0.  1.
       22    1    1    2    0    0 -0.92053863515E-05  0.93124310457E-05  0.15959667688E-04  0.20643921686E-04  0.00000000000E+00 0. -1.
       22    1    1    2    0    0  0.44641029135E-03 -0.14539797079E-02 -0.34964836069E-01  0.34997901372E-01  0.00000000000E+00 0.  1.
       22    1    1    2    0    0 -0.43720490500E-03  0.14446672769E-02  0.34948876401E-01  0.34981454706E-01  0.00000000000E+00 0. -1.
</event>
<event>
 5   0  0.3490748E+06  0.9118800E+02  0.7546771E-02  0.1180000E+00
      -11   -1    0    0    0    0  0.00000000000E+00  0.00000000000E+00  0.34996269501E-01  0.35000000000E-01  0.51099999109E-03 0.  1.
       11   -1    0    0    0    0 -0.00000000000E+00 -0.00000000000E+00 -0.34996269501E-01  0.35000000000E-01  0.51099999109E-03 0.  1.
       22    1    1    2    0    0  0.36680200493E-11 -0.18480553534E-11 -0.35003185763E-01  0.34999999644E-01  0.00000000000E+00 0.  1.
       22    1    1    2    0    0  0.37117301762E-07 -0.18700777886E-07  0.10660092482E-05  0.10668191648E-05  0.00000000000E+00 0. -1.
       22    1    1    2    0    0 -0.37120969782E-07  0.18702625942E-07  0.35002119754E-01  0.34998933537E-01  0.00000000000E+00 0.  1.
</event>
<event>
 5   0  0.3490748E+06  0.9118800E+02  0.7546771E-02  0.1180000E+00
      -11   -1    0    0    0    0  0.00000000000E+00  0.00000000000E+00  0.34996269501E-01  0.35000000000E-01  0.51099999109E-03 0. -1.
       11   -1    0    0    0    0 -0.00000000000E+00 -0.00000000000E+00 -0.34996269501E-01  0.35000000000E-01  0.51099999109E-03 0.  1.
       22    1    1    2    0    0  0.20576014130E-01 -0.70233421362E-02 -0.27427986654E-01  0.34999916345E-01  0.00000000000E+00 0.  1.
       22    1    1    2    0    0 -0.20576070044E-01  0.70233381340E-02  0.27427373346E-01  0.34999467791E-01  0.00000000000E+00 0. -1.
       22    1    1    2    0    0  0.55913591700E-07  0.40022658692E-08  0.61330811151E-06  0.61586458537E-06  0.00000000000E+00 0. -1.
</event>
<event>
 5   0  0.3490748E+06  0.9118800E+02  0.7546771E-02  0.1180000E+00
      -11   -1    0    0    0    0  0.00000000000E+00  0.00000000000E+00  0.34996269501E-01  0.35000000000E-01  0.51099999109E-03 0. -1.
       11   -1    0    0    0    0 -0.00000000000E+00 -0.00000000000E+00 -0.34996269501E-01  0.35000000000E-01  0.51099999109E-03 0.  1.
       22    1    1    2    0    0  0.26457500852E-02 -0.90167696651E-02 -0.33712478032E-01  0.34997618544E-01  0.00000000000E+00 0.  1.
       22    1    1    2    0    0  0.16746818271E-04  0.14731869596E-04  0.15436594262E-03  0.15596899739E-03  0.00000000000E+00 0.  1.
       22    1    1    2    0    0 -0.26624969035E-02  0.90020377955E-02  0.33558112089E-01  0.34846412459E-01  0.00000000000E+00 0. -1.
</event>
<event>
 5   0  0.3490748E+06  0.9118800E+02  0.7546771E-02  0.1180000E+00
      -11   -1    0    0    0    0  0.00000000000E+00  0.00000000000E+00  0.34996269501E-01  0.35000000000E-01  0.51099999109E-03 0. -1.
       11   -1    0    0    0    0 -0.00000000000E+00 -0.00000000000E+00 -0.34996269501E-01  0.35000000000E-01  0.51099999109E-03 0. -1.
       22    1    1    2    0    0 -0.73282879916E-06  0.22803458699E-05  0.66075287570E-05  0.70282609235E-05  0.00000000000E+00 0. -1.
       22    1    1    2    0    0  0.73289643279E-06 -0.22805563257E-05  0.34995910281E-01  0.34993181889E-01  0.00000000000E+00 0. -1.
       22    1    1    2    0    0 -0.67633636195E-10  0.21045581606E-09 -0.35002517810E-01  0.34999789850E-01  0.00000000000E+00 0. -1.
</event>
<event>
 5   0  0.3490748E+06  0.9118800E+02  0.7546771E-02  0.1180000E+00
      -11   -1    0    0    0    0  0.00000000000E+00  0.00000000000E+00  0.34996269501E-01  0.35000000000E-01  0.51099999109E-03 0.  1.
       11   -1    0    0    0    0 -0.00000000000E+00 -0.00000000000E+00 -0.34996269501E-01  0.35000000000E-01  0.51099999109E-03 0. -1.
       22    1    1    2    0    0  0.10799988870E-06 -0.36325988830E-06  0.27199375752E-06  0.46647864532E-06  0.00000000000E+00 0. -1.
       22    1    1    2    0    0 -0.20744573103E-01 -0.14619414266E-01 -0.24102335404E-01  0.34999816552E-01  0.00000000000E+00 0. -1.
       22    1    1    2    0    0  0.20744465103E-01  0.14619777526E-01  0.24102063411E-01  0.34999716970E-01  0.00000000000E+00 0.  1.
</event>
<event>
 5   0  0.3490748E+06  0.9118800E+02  0.7546771E-02  0.1180000E+00
      -11   -1    0    0    0    0  0.00000000000E+00  0.00000000000E+00  0.34996269501E-01  0.35000000000E-01  0.51099999109E-03 0. -1.
       11   -1    0    0    0    0 -0.00000000000E+00 -0.00000000000E+00 -0.34996269501E-01  0.35000000000E-01  0.51099999109E-03 0.  1.
       22    1    1    2    0    0 -0.52712870031E-02 -0.14039087174E-01  0.31623953390E-01  0.34999383757E-01  0.00000000000E+00 0. -1.
       22    1    1    2    0    0 -0.66787999153E-07 -0.48371673426E-07  0.62915982296E-06  0.63454120311E-06  0.00000000000E+00 0. -1.
       22    1    1    2    0    0  0.52713537911E-02  0.14039135546E-01 -0.31624582550E-01  0.34999981702E-01  0.00000000000E+00 0.  1.
</event>
<event>
 5   0  0.3490748E+06  0.9118800E+02  0.7546771E-02  0.1180000E+00
      -11   -1    0    0    0    0  0.00000000000E+00  0.00000000000E+00  0.34996269501E-01  0.35000000000E-01  0.51099999109E-03 0. -1.
       11   -1    0    0    0    0 -0.00000000000E+00 -0.00000000000E+00 -0.34996269501E-01  0.35000000000E-01  0.51099999109E-03 0.  1.
       22    1    1    2    0    0  0.12632861649E-02  0.16556805408E-02  0.34937374302E-01  0.34999389896E-01  0.00000000000E+00 0. -1.
       22    1    1    2    0    0 -0.12633070867E-02 -0.16557223705E-02 -0.34937982680E-01  0.34999999930E-01  0.00000000000E+00 0.  1.
       22    1    1    2    0    0  0.20921824330E-07  0.41829661555E-07  0.60837834563E-06  0.61017346284E-06  0.00000000000E+00 0. -1.
</event>
<event>
 5   0  0.3490748E+06  0.9118800E+02  0.7546771E-02  0.1180000E+00
      -11   -1    0    0    0    0  0.00000000000E+00  0.00000000000E+00  0.34996269501E-01  0.35000000000E-01  0.51099999109E-03 0.  1.
       11   -1    0    0    0    0 -0.00000000000E+00 -0.00000000000E+00 -0.34996269501E-01  0.35000000000E-01  0.51099999109E-03 0. -1.
       22    1    1    2    0    0  0.14883198814E-01  0.30659109087E-01  0.13020799054E-02  0.34105512590E-01  0.00000000000E+00 0.  1.
       22    1    1    2    0    0 -0.13613948547E-01 -0.29862174752E-01 -0.37413445351E-02  0.33031602063E-01  0.00000000000E+00 0. -1.
       22    1    1    2    0    0 -0.12692502668E-02 -0.79693433528E-03  0.24392646297E-02  0.28628853467E-02  0.00000000000E+00 0.  1.
</event>
<event>
 5   0  0.3490748E+06  0.9118800E+02  0.7546771E-02  0.1180000E+00
      -11   -1    0    0    0    0  0.00000000000E+00  0.00000000000E+00  0.34996269501E-01  0.35000000000E-01  0.51099999109E-03 0.  1.
       11   -1    0    0    0    0 -0.00000000000E+00 -0.00000000000E+00 -0.34996269501E-01  0.35000000000E-01  0.51099999109E-03 0. -1.
       22    1    1    2    0    0 -0.60834681447E-02 -0.21952846487E-02  0.33116361372E-01  0.33741980527E-01  0.00000000000E+00 0.  1.
       22    1    1    2    0    0 -0.24828695061E-02  0.73809801758E-03 -0.68015039176E-03  0.26780653881E-02  0.00000000000E+00 0. -1.
       22    1    1    2    0    0  0.85663376508E-02  0.14571866311E-02 -0.32436210980E-01  0.33579954085E-01  0.00000000000E+00 0. -1.
</event>
<event>
 5   0  0.3490748E+06  0.9118800E+02  0.7546771E-02  0.1180000E+00
      -11   -1    0    0    0    0  0.00000000000E+00  0.00000000000E+00  0.34996269501E-01  0.35000000000E-01  0.51099999109E-03 0. -1.
       11   -1    0    0    0    0 -0.00000000000E+00 -0.00000000000E+00 -0.34996269501E-01  0.35000000000E-01  0.51099999109E-03 0.  1.
       22    1    1    2    0    0  0.19146111195E-02  0.26359391126E-02  0.33989965935E-01  0.34145741975E-01  0.00000000000E+00 0. -1.
       22    1    1    2    0    0 -0.15186459099E-02 -0.15064828015E-02 -0.34490633755E-01  0.34556903690E-01  0.00000000000E+00 0.  1.
       22    1    1    2    0    0 -0.39596520963E-03 -0.11294563110E-02  0.50066781981E-03  0.12973543354E-02  0.00000000000E+00 0.  1.
</event>
<event>
 5   0  0.3490748E+06  0.9118800E+02  0.7546771E-02  0.1180000E+00
      -11   -1    0    0    0    0  0.00000000000E+00  0.00000000000E+00  0.34996269501E-01  0.35000000000E-01  0.51099999109E-03 0. -1.
       11   -1    0    0    0    0 -0.00000000000E+00 -0.00000000000E+00 -0.34996269501E-01  0.35000000000E-01  0.51099999109E-03 0.  1.
       22    1    1    2    0    0 -0.68338979282E-02  0.36625952896E-02 -0.34112812815E-01  0.34982863853E-01  0.00000000000E+00 0.  1.
       22    1    1    2    0    0  0.63585739026E-02 -0.36411357117E-02  0.30233003461E-01  0.31108259830E-01  0.00000000000E+00 0. -1.
       22    1    1    2    0    0  0.47532402558E-03 -0.21459577859E-04  0.38798093544E-02  0.39088763179E-02  0.00000000000E+00 0. -1.
</event>
<event>
 5   0  0.3490748E+06  0.9118800E+02  0.7546771E-02  0.1180000E+00
      -11   -1    0    0    0    0  0.00000000000E+00  0.00000000000E+00  0.34996269501E-01  0.35000000000E-01  0.51099999109E-03 0. -1.
       11   -1    0    0    0    0 -0.00000000000E+00 -0.00000000000E+00 -0.34996269501E-01  0.35000000000E-01  0.51099999109E-03 0.  1.
       22    1    1    2    0    0 -0.39690143838E-02 -0.14918607946E-02 -0.34742211347E-01  0.34999999616E-01  0.00000000000E+00 0.  1.
       22    1    1    2    0    0  0.39689611709E-02  0.14918584481E-02  0.34741911557E-01  0.34999695899E-01  0.00000000000E+00 0. -1.
       22    1    1    2    0    0  0.53212949788E-07  0.23464990477E-08  0.29979037590E-06  0.30448545706E-06  0.00000000000E+00 0. -1.
</event>
<event>
 5   0  0.3490748E+06  0.9118800E+02  0.7546771E-02  0.1180000E+00
      -11   -1    0    0    0    0  0.00000000000E+00  0.00000000000E+00  0.34996269501E-01  0.35000000000E-01  0.51099999109E-03 0.  1.
       11   -1    0    0    0    0 -0.00000000000E+00 -0.00000000000E+00 -0.34996269501E-01  0.35000000000E-01  0.51099999109E-03 0. -1.
       22    1    1    2    0    0 -0.49647427937E-03  0.12002877160E-02 -0.34975440480E-01  0.34999551627E-01  0.00000000000E+00 0. -1.
       22    1    1    2    0    0 -0.11642695363E-04  0.31247293474E-05  0.13789653054E-03  0.13842243107E-03  0.00000000000E+00 0. -1.
       22    1    1    2    0    0  0.50811697473E-03 -0.12034124453E-02  0.34837543949E-01  0.34862025942E-01  0.00000000000E+00 0.  1.
</event>
<event>
 5   0  0.3490748E+06  0.9118800E+02  0.7546771E-02  0.1180000E+00
      -11   -1    0    0    0    0  0.00000000000E+00  0.00000000000E+00  0.34996269501E-01  0.35000000000E-01  0.51099999109E-03 0.  1.
       11   -1    0    0    0    0 -0.00000000000E+00 -0.00000000000E+00 -0.34996269501E-01  0.35000000000E-01  0.51099999109E-03 0. -1.
       22    1    1    2    0    0 -0.40677714488E-03 -0.94513025088E-03  0.34867649814E-01  0.34882828762E-01  0.00000000000E+00 0.  1.
       22    1    1    2    0    0  0.28581481820E-03  0.70941359931E-03 -0.34842660126E-01  0.34851053391E-01  0.00000000000E+00 0. -1.
       22    1    1    2    0    0  0.12096232668E-03  0.23571665156E-03 -0.24989688013E-04  0.26611784759E-03  0.00000000000E+00 0.  1.
</event>
<event>
 5   0  0.3490748E+06  0.9118800E+02  0.7546771E-02  0.1180000E+00
      -11   -1    0    0    0    0  0.00000000000E+00  0.00000000000E+00  0.34996269501E-01  0.35000000000E-01  0.51099999109E-03 0. -1.
       11   -1    0    0    0    0 -0.00000000000E+00 -0.00000000000E+00 -0.34996269501E-01  0.35000000000E-01  0.51099999109E-03 0.  1.
       22    1    1    2    0    0 -0.27850841054E-02  0.78312827660E-02 -0.33998611011E-01  0.34999874770E-01  0.00000000000E+00 0.  1.
       22    1    1    2    0    0  0.34524337286E-06 -0.27263381328E-06  0.11552173099E-04  0.11560546072E-04  0.00000000000E+00 0.  1.
       22    1    1    2    0    0  0.27847388621E-02 -0.78310101322E-02  0.33987058838E-01  0.34988564684E-01  0.00000000000E+00 0. -1.
</event>
<event>
 5   0  0.3490748E+06  0.9118800E+02  0.7546771E-02  0.1180000E+00
      -11   -1    0    0    0    0  0.00000000000E+00  0.00000000000E+00  0.34996269501E-01  0.35000000000E-01  0.51099999109E-03 0.  1.
       11   -1    0    0    0    0 -0.00000000000E+00 -0.00000000000E+00 -0.34996269501E-01  0.35000000000E-01  0.51099999109E-03 0. -1.
       22    1    1    2    0    0 -0.15471978884E-02 -0.91363123966E-03 -0.34953777304E-01  0.34999929874E-01  0.00000000000E+00 0. -1.
       22    1    1    2    0    0  0.10864344491E-05  0.53170319548E-05  0.18811463491E-03  0.18819289847E-03  0.00000000000E+00 0. -1.
       22    1    1    2    0    0  0.15461114540E-02  0.90831420771E-03  0.34765662669E-01  0.34811877228E-01  0.00000000000E+00 0.  1.
</event>
<event>
 5   0  0.3490748E+06  0.9118800E+02  0.7546771E-02  0.1180000E+00
      -11   -1    0    0    0    0  0.00000000000E+00  0.00000000000E+00  0.34996269501E-01  0.35000000000E-01  0.51099999109E-03 0. -1.
       11   -1    0    0    0    0 -0.00000000000E+00 -0.00000000000E+00 -0.34996269501E-01  0.35000000000E-01  0.51099999109E-03 0.  1.
       22    1    1    2    0    0 -0.17853792518E-02  0.39774376659E-02 -0.34714113635E-01  0.34986815730E-01  0.00000000000E+00 0.  1.
       22    1    1    2    0    0  0.17471109433E-02 -0.40595827265E-02  0.34480872593E-01  0.34762957057E-01  0.00000000000E+00 0. -1.
       22    1    1    2    0    0  0.38268308486E-04  0.82145060594E-04  0.23324104240E-03  0.25022721330E-03  0.00000000000E+00 0. -1.
</event>
<event>
 5   0  0.3490748E+06  0.9118800E+02  0.7546771E-02  0.1180000E+00
      -11   -1    0    0    0    0  0.00000000000E+00  0.00000000000E+00  0.34996269501E-01  0.35000000000E-01  0.51099999109E-03 0.  1.
       11   -1    0    0    0    0 -0.00000000000E+00 -0.00000000000E+00 -0.34996269501E-01  0.35000000000E-01  0.51099999109E-03 0. -1.
       22    1    1    2    0    0 -0.19011885205E-02 -0.94503680211E-02 -0.33592062135E-01  0.34947827000E-01  0.00000000000E+00 0. -1.
       22    1    1    2    0    0 -0.11518679784E-03  0.18132821300E-04  0.24006916887E-02  0.24035218705E-02  0.00000000000E+00 0. -1.
       22    1    1    2    0    0  0.20163753183E-02  0.94322351998E-02  0.31191370446E-01  0.32648651130E-01  0.00000000000E+00 0.  1.
</event>
<event>
 5   0  0.3490748E+06  0.9118800E+02  0.7546771E-02  0.1180000E+00
      -11   -1    0    0    0    0  0.00000000000E+00  0.00000000000E+00  0.34996269501E-01  0.35000000000E-01  0.51099999109E-03 0.  1.
       11   -1    0    0    0    0 -0.00000000000E+00 -0.00000000000E+00 -0.34996269501E-01  0.35000000000E-01  0.51099999109E-03 0.  1.
       22    1    1    2    0    0  0.57308730712E-08 -0.42002514320E-08  0.35002344290E-01  0.34999906143E-01  0.00000000000E+00 0.  1.
       22    1    1    2    0    0 -0.50503452460E-12  0.37014813604E-12 -0.35002438009E-01  0.34999999869E-01  0.00000000000E+00 0.  1.
       22    1    1    2    0    0 -0.57303680367E-08  0.41998812839E-08  0.93719142184E-07  0.93988051009E-07  0.00000000000E+00 0.  1.
</event>
<event>
 5   0  0.3490748E+06  0.9118800E+02  0.7546771E-02  0.1180000E+00
      -11   -1    0    0    0    0  0.00000000000E+00  0.00000000000E+00  0.34996269501E-01  0.35000000000E-01  0.51099999109E-03 0. -1.
       11   -1    0    0    0    0 -0.00000000000E+00 -0.00000000000E+00 -0.34996269501E-01  0.35000000000E-01  0.51099999109E-03 0.  1.
       22    1    1    2    0    0 -0.83706175511E-03 -0.18176649786E-02  0.34938077098E-01  0.34995339828E-01  0.00000000000E+00 0. -1.
       22    1    1    2    0    0  0.84604253117E-03  0.18166969352E-02 -0.34938198331E-01  0.34995626560E-01  0.00000000000E+00 0.  1.
       22    1    1    2    0    0 -0.89807760587E-05  0.96804338864E-06  0.12123234780E-06  0.90336118967E-05  0.00000000000E+00 0. -1.
</event>
<event>
 5   0  0.3490748E+06  0.9118800E+02  0.7546771E-02  0.1180000E+00
      -11   -1    0    0    0    0  0.00000000000E+00  0.00000000000E+00  0.34996269501E-01  0.35000000000E-01  0.51099999109E-03 0. -1.
       11   -1    0    0    0    0 -0.00000000000E+00 -0.00000000000E+00 -0.34996269501E-01  0.35000000000E-01  0.51099999109E-03 0.  1.
       22    1    1    2    0    0  0.32801840487E-02  0.32018511633E-01 -0.11652655039E-01  0.34230528247E-01  0.00000000000E+00 0.  1.
       22    1    1    2    0    0 -0.47337406168E-03  0.13710729028E-04  0.22050276789E-02  0.22553088594E-02  0.00000000000E+00 0.  1.
       22    1    1    2    0    0 -0.28068099871E-02 -0.32032222362E-01  0.94476273597E-02  0.33514162894E-01  0.00000000000E+00 0. -1.
</event>
<event>
 5   0  0.3490748E+06  0.9118800E+02  0.7546771E-02  0.1180000E+00
      -11   -1    0    0    0    0  0.00000000000E+00  0.00000000000E+00  0.34996269501E-01  0.35000000000E-01  0.51099999109E-03 0. -1.
       11   -1    0    0    0    0 -0.00000000000E+00 -0.00000000000E+00 -0.34996269501E-01  0.35000000000E-01  0.51099999109E-03 0. -1.
       22    1    1    2    0    0 -0.11102807244E-02  0.50261593137E-03 -0.34913057120E-01  0.34934322715E-01  0.00000000000E+00 0. -1.
       22    1    1    2    0    0  0.70907215209E-03  0.99226344303E-04  0.33180134439E-01  0.33187858481E-01  0.00000000000E+00 0. -1.
       22    1    1    2    0    0  0.40120857228E-03 -0.60184227568E-03  0.17329226809E-02  0.18778188042E-02  0.00000000000E+00 0.  1.
</event>
<event>
 5   0  0.3490748E+06  0.9118800E+02  0.7546771E-02  0.1180000E+00
      -11   -1    0    0    0    0  0.00000000000E+00  0.00000000000E+00  0.34996269501E-01  0.35000000000E-01  0.51099999109E-03 0.  1.
       11   -1    0    0    0    0 -0.00000000000E+00 -0.00000000000E+00 -0.34996269501E-01  0.35000000000E-01  0.51099999109E-03 0. -1.
       22    1    1    2    0    0  0.17443911581E-05 -0.22017111959E-05  0.34997236130E-04  0.35109784526E-04  0.00000000000E+00 0. -1.
       22    1    1    2    0    0 -0.16130550817E-01  0.33000316660E-02 -0.30883692664E-01  0.34998390695E-01  0.00000000000E+00 0. -1.
       22    1    1    2    0    0  0.16128806426E-01 -0.32978299549E-02  0.30848695428E-01  0.34966499521E-01  0.00000000000E+00 0.  1.
</event>
<event>
 5   0  0.3490748E+06  0.9118800E+02  0.7546771E-02  0.1180000E+00
      -11   -1    0    0    0    0  0.00000000000E+00  0.00000000000E+00  0.34996269501E-01  0.35000000000E-01  0.51099999109E-03 0.  1.
       11   -1    0    0    0    0 -0.00000000000E+00 -0.00000000000E+00 -0.34996269501E-01  0.35000000000E-01  0.51099999109E-03 0. -1.
       22    1    1    2    0    0  0.21567900922E-02  0.12649776984E-01  0.32202478110E-01  0.34665086148E-01  0.00000000000E+00 0.  1.
       22    1    1    2    0    0 -0.19990282061E-02 -0.12430292676E-01 -0.32546883248E-01  0.34897104449E-01  0.00000000000E+00 0. -1.
       22    1    1    2    0    0 -0.15776188608E-03 -0.21948430821E-03  0.34440513757E-03  0.43780940264E-03  0.00000000000E+00 0.  1.
</event>
<event>
 5   0  0.3490748E+06  0.9118800E+02  0.7546771E-02  0.1180000E+00
      -11   -1    0    0    0    0  0.00000000000E+00  0.00000000000E+00  0.34996269501E-01  0.35000000000E-01  0.51099999109E-03 0. -1.
       11   -1    0    0    0    0 -0.00000000000E+00 -0.00000000000E+00 -0.34996269501E-01  0.35000000000E-01  0.51099999109E-03 0.  1.
       22    1    1    2    0    0 -0.10327168782E-03 -0.34955553693E-04  0.44603188552E-04  0.11779803338E-03  0.00000000000E+00 0. -1.
       22    1    1    2    0    0  0.33386591073E-02  0.24316500851E-02  0.34679925678E-01  0.34925016991E-01  0.00000000000E+00 0. -1.
       22    1    1    2    0    0 -0.32353874194E-02 -0.23966945314E-02 -0.34724528867E-01  0.34957184976E-01  0.00000000000E+00 0.  1.
</event>
<event>
 5   0  0.3490748E+06  0.9118800E+02  0.7546771E-02  0.1180000E+00
      -11   -1    0    0    0    0  0.00000000000E+00  0.00000000000E+00  0.34996269501E-01  0.35000000000E-01  0.51099999109E-03 0.  1.
       11   -1    0    0    0    0 -0.00000000000E+00 -0.00000000000E+00 -0.34996269501E-01  0.35000000000E-01  0.51099999109E-03 0. -1.
       22    1    1    2    0    0 -0.37474447366E-07 -0.70377864627E-07  0.46903902160E-07  0.92505967768E-07  0.00000000000E+00 0. -1.
       22    1    1    2    0    0  0.98404521908E-02  0.78584439429E-02  0.32655880204E-01  0.34999945035E-01  0.00000000000E+00 0.  1.
       22    1    1    2    0    0 -0.98404147164E-02 -0.78583735651E-02 -0.32655927108E-01  0.34999962459E-01  0.00000000000E+00 0. -1.
</event>
<event>
 5   0  0.3490748E+06  0.9118800E+02  0.7546771E-02  0.1180000E+00
      -11   -1    0    0    0    0  0.00000000000E+00  0.00000000000E+00  0.34996269501E-01  0.35000000000E-01  0.51099999109E-03 0. -1.
       11   -1    0    0    0    0 -0.00000000000E+00 -0.00000000000E+00 -0.34996269501E-01  0.35000000000E-01  0.51099999109E-03 0. -1.
       22    1    1    2    0    0 -0.20062659251E-03 -0.33566527154E-04  0.34883388697E-01  0.34883981779E-01  0.00000000000E+00 0. -1.
       22    1    1    2    0    0  0.16603723140E-03 -0.52165451524E-04 -0.34981083626E-01  0.34981516566E-01  0.00000000000E+00 0. -1.
       22    1    1    2    0    0  0.34589361112E-04  0.85731978678E-04  0.97694929092E-04  0.13450165516E-03  0.00000000000E+00 0.  1.
</event>
<event>
 5   0  0.3490748E+06  0.9118800E+02  0.7546771E-02  0.1180000E+00
      -11   -1    0    0    0    0  0.00000000000E+00  0.00000000000E+00  0.34996269501E-01  0.35000000000E-01  0.51099999109E-03 0. -1.
       11   -1    0    0    0    0 -0.00000000000E+00 -0.00000000000E+00 -0.34996269501E-01  0.35000000000E-01  0.51099999109E-03 0.  1.
       22    1    1    2    0    0 -0.56779216601E-08 -0.14421987554E-07 -0.50474814382E-08  0.16300600855E-07  0.00000000000E+00 0. -1.
       22    1    1    2    0    0 -0.19284592146E-01 -0.41187950846E-02  0.28916075794E-01  0.34999991522E-01  0.00000000000E+00 0. -1.
       22    1    1    2    0    0  0.19284597824E-01  0.41188095066E-02 -0.28916070747E-01  0.34999992177E-01  0.00000000000E+00 0.  1.
</event>
<event>
 5   0  0.3490748E+06  0.9118800E+02  0.7546771E-02  0.1180000E+00
      -11   -1    0    0    0    0  0.00000000000E+00  0.00000000000E+00  0.34996269501E-01  0.35000000000E-01  0.51099999109E-03 0.  1.
       11   -1    0    0    0    0 -0.00000000000E+00 -0.00000000000E+00 -0.34996269501E-01  0.35000000000E-01  0.51099999109E-03 0. -1.
       22    1    1    2    0    0 -0.10989575206E-01 -0.14976495154E-01  0.29341643717E-01  0.34727485171E-01  0.00000000000E+00 0.  1.
       22    1    1    2    0    0  0.26871864698E-02  0.29527518418E-03 -0.37483576007E-02  0.46215087645E-02  0.00000000000E+00 0.  1.
       22    1    1    2    0    0  0.83023887362E-02  0.14681219970E-01 -0.25593286116E-01  0.30651006064E-01  0.00000000000E+00 0. -1.
</event>
<event>
 5   0  0.3490748E+06  0.9118800E+02  0.7546771E-02  0.1180000E+00
      -11   -1    0    0    0    0  0.00000000000E+00  0.00000000000E+00  0.34996269501E-01  0.35000000000E-01  0.51099999109E-03 0.  1.
       11   -1    0    0    0    0 -0.00000000000E+00 -0.00000000000E+00 -0.34996269501E-01  0.35000000000E-01  0.51099999109E-03 0.  1.
       22    1    1    2    0    0  0.19087623313E-08 -0.32119282527E-08  0.35002206521E-01  0.34999994789E-01  0.00000000000E+00 0.  1.
       22    1    1    2    0    0 -0.16203577448E-12  0.27266217143E-12 -0.35002211062E-01  0.34999999331E-01  0.00000000000E+00 0.  1.
       22    1    1    2    0    0 -0.19086002955E-08  0.32116555905E-08  0.45415536079E-08  0.58807479025E-08  0.00000000000E+00 0. -1.
</event>
<event>
 5   0  0.3490748E+06  0.9118800E+02  0.7546771E-02  0.1180000E+00
      -11   -1    0    0    0    0  0.00000000000E+00  0.00000000000E+00  0.34996269501E-01  0.35000000000E-01  0.51099999109E-03 0. -1.
       11   -1    0    0    0    0 -0.00000000000E+00 -0.00000000000E+00 -0.34996269501E-01  0.35000000000E-01  0.51099999109E-03 0. -1.
       22    1    1    2    0    0  0.64832972387E-03  0.19333176528E-03 -0.34983702024E-01  0.34990243153E-01  0.00000000000E+00 0. -1.
       22    1    1    2    0    0 -0.59812196670E-03 -0.17677041887E-03  0.34925726637E-01  0.34931295120E-01  0.00000000000E+00 0. -1.
       22    1    1    2    0    0 -0.50207757173E-04 -0.16561346406E-04  0.57975387270E-04  0.78461727002E-04  0.00000000000E+00 0. -1.
</event>
<event>
 5   0  0.3490748E+06  0.9118800E+02  0.7546771E-02  0.1180000E+00
      -11   -1    0    0    0    0  0.00000000000E+00  0.00000000000E+00  0.34996269501E-01  0.35000000000E-01  0.51099999109E-03 0. -1.
       11   -1    0    0    0    0 -0.00000000000E+00 -0.00000000000E+00 -0.34996269501E-01  0.35000000000E-01  0.51099999109E-03 0.  1.
       22    1    1    2    0    0 -0.17164452302E-01  0.10895098632E-02 -0.30480279088E-01  0.34997898049E-01  0.00000000000E+00 0.  1.
       22    1    1    2    0    0  0.17125230893E-01 -0.10624367716E-02  0.30419154282E-01  0.34924593803E-01  0.00000000000E+00 0. -1.
       22    1    1    2    0    0  0.39221409544E-04 -0.27073091591E-04  0.61124805124E-04  0.77508148322E-04  0.00000000000E+00 0. -1.
</event>
<event>
 5   0  0.3490748E+06  0.9118800E+02  0.7546771E-02  0.1180000E+00
      -11   -1    0    0    0    0  0.00000000000E+00  0.00000000000E+00  0.34996269501E-01  0.35000000000E-01  0.51099999109E-03 0. -1.
       11   -1    0    0    0    0 -0.00000000000E+00 -0.00000000000E+00 -0.34996269501E-01  0.35000000000E-01  0.51099999109E-03 0.  1.
       22    1    1    2    0    0  0.94912898180E-03 -0.86760225646E-03  0.34893400604E-01  0.34917087295E-01  0.00000000000E+00 0. -1.
       22    1    1    2    0    0 -0.94851156995E-03  0.86626811939E-03 -0.34976359760E-01  0.34999940524E-01  0.00000000000E+00 0.  1.
       22    1    1    2    0    0 -0.61741185291E-06  0.13341370703E-05  0.82959156138E-04  0.82972180315E-04  0.00000000000E+00 0. -1.
</event>
<event>
 5   0  0.3490748E+06  0.9118800E+02  0.7546771E-02  0.1180000E+00
      -11   -1    0    0    0    0  0.00000000000E+00  0.00000000000E+00  0.34996269501E-01  0.35000000000E-01  0.51099999109E-03 0.  1.
       11   -1    0    0    0    0 -0.00000000000E+00 -0.00000000000E+00 -0.34996269501E-01  0.35000000000E-01  0.51099999109E-03 0. -1.
       22    1    1    2    0    0  0.75568699739E-03  0.11793059060E-02 -0.34971961730E-01  0.34999999036E-01  0.00000000000E+00 0. -1.
       22    1    1    2    0    0 -0.75562608670E-03 -0.11793226242E-02  0.34970845670E-01  0.34998883118E-01  0.00000000000E+00 0.  1.
       22    1    1    2    0    0 -0.60910684813E-07  0.16718167433E-07  0.11160605754E-05  0.11178465085E-05  0.00000000000E+00 0.  1.
</event>
<event>
 5   0  0.3490748E+06  0.9118800E+02  0.7546771E-02  0.1180000E+00
      -11   -1    0    0    0    0  0.00000000000E+00  0.00000000000E+00  0.34996269501E-01  0.35000000000E-01  0.51099999109E-03 0.  1.
       11   -1    0    0    0    0 -0.00000000000E+00 -0.00000000000E+00 -0.34996269501E-01  0.35000000000E-01  0.51099999109E-03 0. -1.
       22    1    1    2    0    0  0.33455405298E-03 -0.11184373500E-01 -0.33163100530E-01  0.34999905339E-01  0.00000000000E+00 0. -1.
       22    1    1    2    0    0  0.13377598316E-06  0.31417159375E-06  0.61828045653E-07  0.34701946807E-06  0.00000000000E+00 0.  1.
       22    1    1    2    0    0 -0.33468782896E-03  0.11184059328E-01  0.33163038702E-01  0.34999747641E-01  0.00000000000E+00 0.  1.
</event>
<event>
 5   0  0.3490748E+06  0.9118800E+02  0.7546771E-02  0.1180000E+00
      -11   -1    0    0    0    0  0.00000000000E+00  0.00000000000E+00  0.34996269501E-01  0.35000000000E-01  0.51099999109E-03 0. -1.
       11   -1    0    0    0    0 -0.00000000000E+00 -0.00000000000E+00 -0.34996269501E-01  0.35000000000E-01  0.51099999109E-03 0.  1.
       22    1    1    2    0    0  0.70964259348E-02  0.12228867893E-02 -0.34251207569E-01  0.34999999044E-01  0.00000000000E+00 0.  1.
       22    1    1    2    0    0 -0.16490586661E-08 -0.94267155202E-08  0.20323354300E-07  0.22463772835E-07  0.00000000000E+00 0.  1.
       22    1    1    2    0    0 -0.70964242857E-02 -0.12228773626E-02  0.34251187246E-01  0.34999978492E-01  0.00000000000E+00 0. -1.
</event>
<event>
 5   0  0.3490748E+06  0.9118800E+02  0.7546771E-02  0.1180000E+00
      -11   -1    0    0    0    0  0.00000000000E+00  0.00000000000E+00  0.34996269501E-01  0.35000000000E-01  0.51099999109E-03 0.  1.
       11   -1    0    0    0    0 -0.00000000000E+00 -0.00000000000E+00 -0.34996269501E-01  0.35000000000E-01  0.51099999109E-03 0. -1.
       22    1    1    2    0    0  0.33732159460E-05 -0.11232810073E-05 -0.10189917891E-03  0.10196118383E-03  0.00000000000E+00 0.  1.
       22    1    1    2    0    0 -0.33112935313E-01 -0.10395044669E-01  0.41750243491E-02  0.34956462450E-01  0.00000000000E+00 0.  1.
       22    1    1    2    0    0  0.33109562097E-01  0.10396167950E-01 -0.40731251702E-02  0.34941576366E-01  0.00000000000E+00 0. -1.
</event>
<event>
 5   0  0.3490748E+06  0.9118800E+02  0.7546771E-02  0.1180000E+00
      -11   -1    0    0    0    0  0.00000000000E+00  0.00000000000E+00  0.34996269501E-01  0.35000000000E-01  0.51099999109E-03 0.  1.
       11   -1    0    0    0    0 -0.00000000000E+00 -0.00000000000E+00 -0.34996269501E-01  0.35000000000E-01  0.51099999109E-03 0. -1.
       22    1    1    2    0    0 -0.15165665432E-01  0.97859832313E-02  0.29987241836E-01  0.34999964982E-01  0.00000000000E+00 0.  1.
       22    1    1    2    0    0  0.15165670496E-01 -0.97859927814E-02 -0.29987276037E-01  0.34999999149E-01  0.00000000000E+00 0. -1.
       22    1    1    2    0    0 -0.50637481870E-08  0.95501217927E-08  0.34201592417E-07  0.35869141275E-07  0.00000000000E+00 0.  1.
</event>
<event>
 5   0  0.3490748E+06  0.9118800E+02  0.7546771E-02  0.1180000E+00
      -11   -1    0    0    0    0  0.00000000000E+00  0.00000000000E+00  0.34996269501E-01  0.35000000000E-01  0.51099999109E-03 0. -1.
       11   -1    0    0    0    0 -0.00000000000E+00 -0.00000000000E+00 -0.34996269501E-01  0.35000000000E-01  0.51099999109E-03 0.  1.
       22    1    1    2    0    0  0.35767583405E-03  0.30770145490E-04  0.15338857048E-01  0.15343057529E-01  0.00000000000E+00 0. -1.
       22    1    1    2    0    0 -0.12503220392E-03 -0.43217934045E-02 -0.34627000046E-01  0.34895883188E-01  0.00000000000E+00 0.  1.
       22    1    1    2    0    0 -0.23264363012E-03  0.42910232590E-02  0.19288142998E-01  0.19761059283E-01  0.00000000000E+00 0. -1.
</event>
<event>
 5   0  0.3490748E+06  0.9118800E+02  0.7546771E-02  0.1180000E+00
      -11   -1    0    0    0    0  0.00000000000E+00  0.00000000000E+00  0.34996269501E-01  0.35000000000E-01  0.51099999109E-03 0. -1.
       11   -1    0    0    0    0 -0.00000000000E+00 -0.00000000000E+00 -0.34996269501E-01  0.35000000000E-01  0.51099999109E-03 0.  1.
       22    1    1    2    0    0  0.21138834091E-01 -0.99089387606E-02  0.26074625037E-01  0.34998906339E-01  0.00000000000E+00 0. -1.
       22    1    1    2    0    0 -0.21138887562E-01  0.99088745009E-02 -0.26075868813E-01  0.34999847079E-01  0.00000000000E+00 0.  1.
       22    1    1    2    0    0  0.53470843243E-07  0.64259716573E-07  0.12437753045E-05  0.12465815057E-05  0.00000000000E+00 0.  1.
</event>
<event>
 5   0  0.3490748E+06  0.9118800E+02  0.7546771E-02  0.1180000E+00
      -11   -1    0    0    0    0  0.00000000000E+00  0.00000000000E+00  0.34996269501E-01  0.35000000000E-01  0.51099999109E-03 0. -1.
       11   -1    0    0    0    0 -0.00000000000E+00 -0.00000000000E+00 -0.34996269501E-01  0.35000000000E-01  0.51099999109E-03 0.  1.
       22    1    1    2    0    0  0.37604118575E-04 -0.23453351101E-04 -0.33836009765E-03  0.34125017962E-03  0.00000000000E+00 0. -1.
       22    1    1    2    0    0 -0.31056944523E-01  0.10622620073E-01  0.11878358410E-01  0.34906579019E-01  0.00000000000E+00 0. -1.
       22    1    1    2    0    0  0.31019340404E-01 -0.10599166722E-01 -0.11539998313E-01  0.34752170801E-01  0.00000000000E+00 0.  1.
</event>
<event>
 5   0  0.3490748E+06  0.9118800E+02  0.7546771E-02  0.1180000E+00
      -11   -1    0    0    0    0  0.00000000000E+00  0.00000000000E+00  0.34996269501E-01  0.35000000000E-01  0.51099999109E-03 0.  1.
       11   -1    0    0    0    0 -0.00000000000E+00 -0.00000000000E+00 -0.34996269501E-01  0.35000000000E-01  0.51099999109E-03 0. -1.
       22    1    1    2    0    0  0.72408834198E-03  0.17867796200E-03 -0.34251236128E-01  0.34259355014E-01  0.00000000000E+00 0. -1.
       22    1    1    2    0    0 -0.87738872757E-03 -0.40924538198E-03  0.34963270362E-01  0.34976671757E-01  0.00000000000E+00 0.  1.
       22    1    1    2    0    0  0.15330038559E-03  0.23056741998E-03 -0.71203423446E-03  0.76397322887E-03  0.00000000000E+00 0.  1.
</event>
<event>
 5   0  0.3490748E+06  0.9118800E+02  0.7546771E-02  0.1180000E+00
      -11   -1    0    0    0    0  0.00000000000E+00  0.00000000000E+00  0.34996269501E-01  0.35000000000E-01  0.51099999109E-03 0. -1.
       11   -1    0    0    0    0 -0.00000000000E+00 -0.00000000000E+00 -0.34996269501E-01  0.35000000000E-01  0.51099999109E-03 0. -1.
       22    1    1    2    0    0  0.25567770560E-05 -0.99391714853E-05  0.11934971883E-04  0.15740641428E-04  0.00000000000E+00 0.  1.
       22    1    1    2    0    0  0.16809104851E-04  0.27780605129E-03  0.34985093456E-01  0.34986200463E-01  0.00000000000E+00 0. -1.
       22    1    1    2    0    0 -0.19365881907E-04 -0.26786687980E-03 -0.34997028427E-01  0.34998058896E-01  0.00000000000E+00 0. -1.
</event>
<event>
 5   0  0.3490748E+06  0.9118800E+02  0.7546771E-02  0.1180000E+00
      -11   -1    0    0    0    0  0.00000000000E+00  0.00000000000E+00  0.34996269501E-01  0.35000000000E-01  0.51099999109E-03 0.  1.
       11   -1    0    0    0    0 -0.00000000000E+00 -0.00000000000E+00 -0.34996269501E-01  0.35000000000E-01  0.51099999109E-03 0. -1.
       22    1    1    2    0    0 -0.32049178699E-06  0.20017986310E-06  0.24784229434E-06  0.45189906615E-06  0.00000000000E+00 0. -1.
       22    1    1    2    0    0  0.10777358505E-01 -0.32348953843E-01  0.78984735557E-02  0.34999887937E-01  0.00000000000E+00 0. -1.
       22    1    1    2    0    0 -0.10777038013E-01  0.32348753663E-01 -0.78987213980E-02  0.34999660164E-01  0.00000000000E+00 0.  1.
</event>
<event>
 5   0  0.3490748E+06  0.9118800E+02  0.7546771E-02  0.1180000E+00
      -11   -1    0    0    0    0  0.00000000000E+00  0.00000000000E+00  0.34996269501E-01  0.35000000000E-01  0.51099999109E-03 0. -1.
       11   -1    0    0    0    0 -0.00000000000E+00 -0.00000000000E+00 -0.34996269501E-01  0.35000000000E-01  0.51099999109E-03 0.  1.
       22    1    1    2    0    0  0.16294132244E-02  0.12181612138E-03 -0.34961838232E-01  0.34999999417E-01  0.00000000000E+00 0.  1.
       22    1    1    2    0    0 -0.16294131455E-02 -0.12181360445E-03  0.34961836124E-01  0.34999997299E-01  0.00000000000E+00 0. -1.
       22    1    1    2    0    0 -0.78889164581E-10 -0.25169302385E-08  0.21081845225E-08  0.32841442274E-08  0.00000000000E+00 0. -1.
</event>
<event>
 5   0  0.3490748E+06  0.9118800E+02  0.7546771E-02  0.1180000E+00
      -11   -1    0    0    0    0  0.00000000000E+00  0.00000000000E+00  0.34996269501E-01  0.35000000000E-01  0.51099999109E-03 0. -1.
       11   -1    0    0    0    0 -0.00000000000E+00 -0.00000000000E+00 -0.34996269501E-01  0.35000000000E-01  0.51099999109E-03 0.  1.
       22    1    1    2    0    0  0.30248656221E-01  0.93561306767E-03 -0.17553859247E-01  0.34985633472E-01  0.00000000000E+00 0.  1.
       22    1    1    2    0    0 -0.13142460134E-04  0.38996710661E-04  0.47497869414E-04  0.62845169262E-04  0.00000000000E+00 0.  1.
       22    1    1    2    0    0 -0.30235513761E-01 -0.97460977833E-03  0.17506361378E-01  0.34951521359E-01  0.00000000000E+00 0. -1.
</event>
<event>
 5   0  0.3490748E+06  0.9118800E+02  0.7546771E-02  0.1180000E+00
      -11   -1    0    0    0    0  0.00000000000E+00  0.00000000000E+00  0.34996269501E-01  0.35000000000E-01  0.51099999109E-03 0.  1.
       11   -1    0    0    0    0 -0.00000000000E+00 -0.00000000000E+00 -0.34996269501E-01  0.35000000000E-01  0.51099999109E-03 0. -1.
       22    1    1    2    0    0  0.11119318151E-03  0.73804619316E-03  0.34852244296E-01  0.34860235349E-01  0.00000000000E+00 0.  1.
       22    1    1    2    0    0  0.91999695696E-03 -0.53613323363E-03 -0.19585703740E-02  0.22293118120E-02  0.00000000000E+00 0. -1.
       22    1    1    2    0    0 -0.10311901385E-02 -0.20191295953E-03 -0.32893673922E-01  0.32910452839E-01  0.00000000000E+00 0. -1.
</event>
<event>
 5   0  0.1427359E+07  0.9118800E+02  0.7546771E-02  0.1180000E+00
      -11   -1    0    0    0    0  0.00000000000E+00  0.00000000000E+00  0.34996269501E-01  0.35000000000E-01  0.51099999109E-03 0. -1.
       11   -1    0    0    0    0 -0.00000000000E+00 -0.00000000000E+00 -0.34996269501E-01  0.35000000000E-01  0.51099999109E-03 0.  1.
       22    1    1    2    0    0  0.22827346466E-02 -0.13377194379E-02 -0.34899851417E-01  0.34999999996E-01  0.00000000000E+00 0.  1.
       22    1    1    2    0    0 -0.22827344922E-02  0.13377195098E-02  0.34899850274E-01  0.34999998848E-01  0.00000000000E+00 0. -1.
       22    1    1    2    0    0 -0.15434705034E-09 -0.71874257611E-10  0.11435844295E-08  0.11561895469E-08  0.00000000000E+00 0.  1.
</event>
<event>
 5   0  0.3490748E+06  0.9118800E+02  0.7546771E-02  0.1180000E+00
      -11   -1    0    0    0    0  0.00000000000E+00  0.00000000000E+00  0.34996269501E-01  0.35000000000E-01  0.51099999109E-03 0.  1.
       11   -1    0    0    0    0 -0.00000000000E+00 -0.00000000000E+00 -0.34996269501E-01  0.35000000000E-01  0.51099999109E-03 0. -1.
       22    1    1    2    0    0 -0.13132537248E-01 -0.18828175842E-01 -0.26395180883E-01  0.34980985034E-01  0.00000000000E+00 0. -1.
       22    1    1    2    0    0  0.13114826232E-01  0.18825930735E-01  0.26417795844E-01  0.34990202520E-01  0.00000000000E+00 0.  1.
       22    1    1    2    0    0  0.17711015921E-04  0.22451073060E-05 -0.22614961037E-04  0.28812446173E-04  0.00000000000E+00 0.  1.
</event>
<event>
 5   0  0.3490748E+06  0.9118800E+02  0.7546771E-02  0.1180000E+00
      -11   -1    0    0    0    0  0.00000000000E+00  0.00000000000E+00  0.34996269501E-01  0.35000000000E-01  0.51099999109E-03 0.  1.
       11   -1    0    0    0    0 -0.00000000000E+00 -0.00000000000E+00 -0.34996269501E-01  0.35000000000E-01  0.51099999109E-03 0. -1.
       22    1    1    2    0    0  0.14423059988E-01  0.10792870591E-02 -0.29084770011E-01  0.32482508625E-01  0.00000000000E+00 0. -1.
       22    1    1    2    0    0 -0.16505156478E-01 -0.64387654144E-02  0.19550601725E-01  0.26383781348E-01  0.00000000000E+00 0.  1.
       22    1    1    2    0    0  0.20820964903E-02  0.53594783554E-02  0.95341682866E-02  0.11133710026E-01  0.00000000000E+00 0.  1.
</event>
<event>
 5   0  0.3490748E+06  0.9118800E+02  0.7546771E-02  0.1180000E+00
      -11   -1    0    0    0    0  0.00000000000E+00  0.00000000000E+00  0.34996269501E-01  0.35000000000E-01  0.51099999109E-03 0.  1.
       11   -1    0    0    0    0 -0.00000000000E+00 -0.00000000000E+00 -0.34996269501E-01  0.35000000000E-01  0.51099999109E-03 0.  1.
       22    1    1    2    0    0 -0.28187098994E-03 -0.45473459912E-03 -0.34978739230E-01  0.34982830545E-01  0.00000000000E+00 0.  1.
       22    1    1    2    0    0 -0.27742926947E-05  0.17755188592E-03  0.41810024073E-03  0.45424682738E-03  0.00000000000E+00 0. -1.
       22    1    1    2    0    0  0.28464528264E-03  0.27718271321E-03  0.34560638990E-01  0.34562922628E-01  0.00000000000E+00 0.  1.
</event>
<event>
 5   0  0.3490748E+06  0.9118800E+02  0.7546771E-02  0.1180000E+00
      -11   -1    0    0    0    0  0.00000000000E+00  0.00000000000E+00  0.34996269501E-01  0.35000000000E-01  0.51099999109E-03 0.  1.
       11   -1    0    0    0    0 -0.00000000000E+00 -0.00000000000E+00 -0.34996269501E-01  0.35000000000E-01  0.51099999109E-03 0. -1.
       22    1    1    2    0    0 -0.60611569275E-02 -0.20437484077E-01 -0.27704335205E-01  0.34956523967E-01  0.00000000000E+00 0. -1.
       22    1    1    2    0    0  0.11444468419E-03  0.25753335199E-03  0.10486877527E-02  0.10858945693E-02  0.00000000000E+00 0. -1.
       22    1    1    2    0    0  0.59467122433E-02  0.20179950725E-01  0.26655647452E-01  0.33957581464E-01  0.00000000000E+00 0.  1.
</event>
<event>
 5   0  0.3490748E+06  0.9118800E+02  0.7546771E-02  0.1180000E+00
      -11   -1    0    0    0    0  0.00000000000E+00  0.00000000000E+00  0.34996269501E-01  0.35000000000E-01  0.51099999109E-03 0.  1.
       11   -1    0    0    0    0 -0.00000000000E+00 -0.00000000000E+00 -0.34996269501E-01  0.35000000000E-01  0.51099999109E-03 0. -1.
       22    1    1    2    0    0  0.32180611533E-08 -0.93287389453E-07  0.86678767662E-08  0.93744466696E-07  0.00000000000E+00 0. -1.
       22    1    1    2    0    0  0.91356916477E-03 -0.11574491232E-02 -0.34968880652E-01  0.34999955873E-01  0.00000000000E+00 0. -1.
       22    1    1    2    0    0 -0.91357238283E-03  0.11575424105E-02  0.34968871984E-01  0.34999950382E-01  0.00000000000E+00 0.  1.
</event>
<event>
 5   0  0.3490748E+06  0.9118800E+02  0.7546771E-02  0.1180000E+00
      -11   -1    0    0    0    0  0.00000000000E+00  0.00000000000E+00  0.34996269501E-01  0.35000000000E-01  0.51099999109E-03 0.  1.
       11   -1    0    0    0    0 -0.00000000000E+00 -0.00000000000E+00 -0.34996269501E-01  0.35000000000E-01  0.51099999109E-03 0. -1.
       22    1    1    2    0    0  0.30466437977E-08  0.31514989188E-08  0.15580505281E-07  0.16185367734E-07  0.00000000000E+00 0.  1.
       22    1    1    2    0    0 -0.50548775944E-02 -0.38379235316E-02  0.34419725162E-01  0.34999984639E-01  0.00000000000E+00 0.  1.
       22    1    1    2    0    0  0.50548745477E-02  0.38379203801E-02 -0.34419740742E-01  0.34999999176E-01  0.00000000000E+00 0. -1.
</event>
<event>
 5   0  0.3490748E+06  0.9118800E+02  0.7546771E-02  0.1180000E+00
      -11   -1    0    0    0    0  0.00000000000E+00  0.00000000000E+00  0.34996269501E-01  0.35000000000E-01  0.51099999109E-03 0.  1.
       11   -1    0    0    0    0 -0.00000000000E+00 -0.00000000000E+00 -0.34996269501E-01  0.35000000000E-01  0.51099999109E-03 0. -1.
       22    1    1    2    0    0 -0.49749937206E-09 -0.92767780293E-09  0.14194112167E-07  0.14233092142E-07  0.00000000000E+00 0.  1.
       22    1    1    2    0    0 -0.80271736523E-02 -0.39514738918E-02  0.33837100218E-01  0.34999985913E-01  0.00000000000E+00 0.  1.
       22    1    1    2    0    0  0.80271741498E-02  0.39514748194E-02 -0.33837114412E-01  0.34999999854E-01  0.00000000000E+00 0. -1.
</event>
<event>
 5   0  0.3490748E+06  0.9118800E+02  0.7546771E-02  0.1180000E+00
      -11   -1    0    0    0    0  0.00000000000E+00  0.00000000000E+00  0.34996269501E-01  0.35000000000E-01  0.51099999109E-03 0.  1.
       11   -1    0    0    0    0 -0.00000000000E+00 -0.00000000000E+00 -0.34996269501E-01  0.35000000000E-01  0.51099999109E-03 0. -1.
       22    1    1    2    0    0 -0.42608080624E-03  0.27589445612E-02 -0.29748341392E-01  0.29879041744E-01  0.00000000000E+00 0. -1.
       22    1    1    2    0    0 -0.14355753773E-02 -0.78382160794E-03 -0.50031053158E-02  0.52636789205E-02  0.00000000000E+00 0. -1.
       22    1    1    2    0    0  0.18616561836E-02 -0.19751229532E-02  0.34751446708E-01  0.34857279336E-01  0.00000000000E+00 0.  1.
</event>
<event>
 5   0  0.3490748E+06  0.9118800E+02  0.7546771E-02  0.1180000E+00
      -11   -1    0    0    0    0  0.00000000000E+00  0.00000000000E+00  0.34996269501E-01  0.35000000000E-01  0.51099999109E-03 0. -1.
       11   -1    0    0    0    0 -0.00000000000E+00 -0.00000000000E+00 -0.34996269501E-01  0.35000000000E-01  0.51099999109E-03 0.  1.
       22    1    1    2    0    0  0.41016337356E-09  0.23372708281E-09  0.52364755177E-09  0.70503127642E-09  0.00000000000E+00 0. -1.
       22    1    1    2    0    0  0.28407301931E-01 -0.10091383655E-01 -0.17781708249E-01  0.34999999648E-01  0.00000000000E+00 0.  1.
       22    1    1    2    0    0 -0.28407302341E-01  0.10091383421E-01  0.17781707726E-01  0.34999999647E-01  0.00000000000E+00 0. -1.
</event>
<event>
 5   0  0.3490748E+06  0.9118800E+02  0.7546771E-02  0.1180000E+00
      -11   -1    0    0    0    0  0.00000000000E+00  0.00000000000E+00  0.34996269501E-01  0.35000000000E-01  0.51099999109E-03 0.  1.
       11   -1    0    0    0    0 -0.00000000000E+00 -0.00000000000E+00 -0.34996269501E-01  0.35000000000E-01  0.51099999109E-03 0. -1.
       22    1    1    2    0    0 -0.30335031259E-09 -0.21851529996E-09  0.37111569374E-09  0.52678003626E-09  0.00000000000E+00 0. -1.
       22    1    1    2    0    0  0.14546446041E-01 -0.28298196821E-02 -0.31707933160E-01  0.34999999959E-01  0.00000000000E+00 0. -1.
       22    1    1    2    0    0 -0.14546445738E-01  0.28298199006E-02  0.31707932789E-01  0.34999999514E-01  0.00000000000E+00 0.  1.
</event>
<event>
 5   0  0.3490748E+06  0.9118800E+02  0.7546771E-02  0.1180000E+00
      -11   -1    0    0    0    0  0.00000000000E+00  0.00000000000E+00  0.34996269501E-01  0.35000000000E-01  0.51099999109E-03 0.  1.
       11   -1    0    0    0    0 -0.00000000000E+00 -0.00000000000E+00 -0.34996269501E-01  0.35000000000E-01  0.51099999109E-03 0. -1.
       22    1    1    2    0    0 -0.31474016947E-03 -0.40162762345E-03  0.17840847518E-01  0.17848142937E-01  0.00000000000E+00 0.  1.
       22    1    1    2    0    0 -0.33623370744E-03  0.42500601582E-03  0.17148192796E-01  0.17156753754E-01  0.00000000000E+00 0. -1.
       22    1    1    2    0    0  0.65097387691E-03 -0.23378392371E-04 -0.34989040314E-01  0.34995103309E-01  0.00000000000E+00 0. -1.
</event>
<event>
 5   0  0.3490748E+06  0.9118800E+02  0.7546771E-02  0.1180000E+00
      -11   -1    0    0    0    0  0.00000000000E+00  0.00000000000E+00  0.34996269501E-01  0.35000000000E-01  0.51099999109E-03 0. -1.
       11   -1    0    0    0    0 -0.00000000000E+00 -0.00000000000E+00 -0.34996269501E-01  0.35000000000E-01  0.51099999109E-03 0.  1.
       22    1    1    2    0    0  0.43282797542E-02 -0.88783337186E-02  0.32846187659E-01  0.34299137875E-01  0.00000000000E+00 0. -1.
       22    1    1    2    0    0  0.12746785929E-03  0.50143171520E-04  0.70731967071E-03  0.72046062305E-03  0.00000000000E+00 0. -1.
       22    1    1    2    0    0 -0.44557476135E-02  0.88281905471E-02 -0.33553507329E-01  0.34980401502E-01  0.00000000000E+00 0.  1.
</event>
<event>
 5   0  0.3490748E+06  0.9118800E+02  0.7546771E-02  0.1180000E+00
      -11   -1    0    0    0    0  0.00000000000E+00  0.00000000000E+00  0.34996269501E-01  0.35000000000E-01  0.51099999109E-03 0.  1.
       11   -1    0    0    0    0 -0.00000000000E+00 -0.00000000000E+00 -0.34996269501E-01  0.35000000000E-01  0.51099999109E-03 0. -1.
       22    1    1    2    0    0 -0.42766544188E-05 -0.17953629657E-05  0.67379431194E-05  0.81800353713E-05  0.00000000000E+00 0. -1.
       22    1    1    2    0    0 -0.12617560136E-01 -0.11261247052E-02  0.32618506289E-01  0.34991969553E-01  0.00000000000E+00 0.  1.
       22    1    1    2    0    0  0.12621836791E-01  0.11279200681E-02 -0.32625244232E-01  0.34999850412E-01  0.00000000000E+00 0. -1.
</event>
<event>
 5   0  0.3490748E+06  0.9118800E+02  0.7546771E-02  0.1180000E+00
      -11   -1    0    0    0    0  0.00000000000E+00  0.00000000000E+00  0.34996269501E-01  0.35000000000E-01  0.51099999109E-03 0.  1.
       11   -1    0    0    0    0 -0.00000000000E+00 -0.00000000000E+00 -0.34996269501E-01  0.35000000000E-01  0.51099999109E-03 0. -1.
       22    1    1    2    0    0 -0.22892988300E-02 -0.43435825796E-02 -0.29743211135E-01  0.30145749408E-01  0.00000000000E+00 0. -1.
       22    1    1    2    0    0  0.36047837002E-02 -0.10556274106E-01  0.16246771327E-01  0.19707535794E-01  0.00000000000E+00 0. -1.
       22    1    1    2    0    0 -0.13154848702E-02  0.14899856685E-01  0.13496439807E-01  0.20146714798E-01  0.00000000000E+00 0.  1.
</event>
<event>
 5   0  0.3490748E+06  0.9118800E+02  0.7546771E-02  0.1180000E+00
      -11   -1    0    0    0    0  0.00000000000E+00  0.00000000000E+00  0.34996269501E-01  0.35000000000E-01  0.51099999109E-03 0.  1.
       11   -1    0    0    0    0 -0.00000000000E+00 -0.00000000000E+00 -0.34996269501E-01  0.35000000000E-01  0.51099999109E-03 0. -1.
       22    1    1    2    0    0  0.11158734605E-02 -0.90904730374E-03  0.34970389272E-01  0.34999995234E-01  0.00000000000E+00 0.  1.
       22    1    1    2    0    0 -0.41043981547E-08  0.36264037770E-08  0.33428992604E-08  0.64165305291E-08  0.00000000000E+00 0. -1.
       22    1    1    2    0    0 -0.11158693561E-02  0.90904367734E-03 -0.34970392615E-01  0.34999998349E-01  0.00000000000E+00 0. -1.
</event>
<event>
 5   0  0.3490748E+06  0.9118800E+02  0.7546771E-02  0.1180000E+00
      -11   -1    0    0    0    0  0.00000000000E+00  0.00000000000E+00  0.34996269501E-01  0.35000000000E-01  0.51099999109E-03 0.  1.
       11   -1    0    0    0    0 -0.00000000000E+00 -0.00000000000E+00 -0.34996269501E-01  0.35000000000E-01  0.51099999109E-03 0. -1.
       22    1    1    2    0    0 -0.69049848204E-05  0.70824421525E-05  0.22787007757E-04  0.24841246441E-04  0.00000000000E+00 0. -1.
       22    1    1    2    0    0  0.40636020496E-02 -0.73239147730E-02  0.33960035248E-01  0.34977658344E-01  0.00000000000E+00 0.  1.
       22    1    1    2    0    0 -0.40566970647E-02  0.73168323308E-02 -0.33982822256E-01  0.34997500409E-01  0.00000000000E+00 0. -1.
</event>
<event>
 5   0  0.3490748E+06  0.9118800E+02  0.7546771E-02  0.1180000E+00
      -11   -1    0    0    0    0  0.00000000000E+00  0.00000000000E+00  0.34996269501E-01  0.35000000000E-01  0.51099999109E-03 0.  1.
       11   -1    0    0    0    0 -0.00000000000E+00 -0.00000000000E+00 -0.34996269501E-01  0.35000000000E-01  0.51099999109E-03 0. -1.
       22    1    1    2    0    0  0.41590705314E-04 -0.57418755386E-03  0.31824162468E-01  0.31829369110E-01  0.00000000000E+00 0.  1.
       22    1    1    2    0    0  0.73705025802E-04  0.23371321908E-04  0.31705005717E-02  0.31714432873E-02  0.00000000000E+00 0. -1.
       22    1    1    2    0    0 -0.11529573112E-03  0.55081623196E-03 -0.34994663040E-01  0.34999187603E-01  0.00000000000E+00 0. -1.
</event>
<event>
 5   0  0.3490748E+06  0.9118800E+02  0.7546771E-02  0.1180000E+00
      -11   -1    0    0    0    0  0.00000000000E+00  0.00000000000E+00  0.34996269501E-01  0.35000000000E-01  0.51099999109E-03 0. -1.
       11   -1    0    0    0    0 -0.00000000000E+00 -0.00000000000E+00 -0.34996269501E-01  0.35000000000E-01  0.51099999109E-03 0.  1.
       22    1    1    2    0    0 -0.78175213893E-09 -0.10183080080E-10  0.13739945055E-08  0.15808545167E-08  0.00000000000E+00 0. -1.
       22    1    1    2    0    0 -0.21067062983E-02 -0.45486779542E-03 -0.34933578043E-01  0.34999999872E-01  0.00000000000E+00 0.  1.
       22    1    1    2    0    0  0.21067070800E-02  0.45486780560E-03  0.34933576669E-01  0.34999998547E-01  0.00000000000E+00 0. -1.
</event>
<event>
 5   0  0.3490748E+06  0.9118800E+02  0.7546771E-02  0.1180000E+00
      -11   -1    0    0    0    0  0.00000000000E+00  0.00000000000E+00  0.34996269501E-01  0.35000000000E-01  0.51099999109E-03 0.  1.
       11   -1    0    0    0    0 -0.00000000000E+00 -0.00000000000E+00 -0.34996269501E-01  0.35000000000E-01  0.51099999109E-03 0. -1.
       22    1    1    2    0    0 -0.10003206429E-05  0.50918381368E-06  0.13173291234E-04  0.13221025356E-04  0.00000000000E+00 0.  1.
       22    1    1    2    0    0 -0.11490675310E-03 -0.57825623051E-02  0.34505569250E-01  0.34986933841E-01  0.00000000000E+00 0.  1.
       22    1    1    2    0    0  0.11590707375E-03  0.57820531213E-02 -0.34518742541E-01  0.34999845133E-01  0.00000000000E+00 0. -1.
</event>
<event>
 5   0  0.3490748E+06  0.9118800E+02  0.7546771E-02  0.1180000E+00
      -11   -1    0    0    0    0  0.00000000000E+00  0.00000000000E+00  0.34996269501E-01  0.35000000000E-01  0.51099999109E-03 0. -1.
       11   -1    0    0    0    0 -0.00000000000E+00 -0.00000000000E+00 -0.34996269501E-01  0.35000000000E-01  0.51099999109E-03 0.  1.
       22    1    1    2    0    0  0.10100784019E-03 -0.22308400319E-02 -0.34900364334E-01  0.34971735451E-01  0.00000000000E+00 0.  1.
       22    1    1    2    0    0  0.92243034824E-04  0.19698494706E-02  0.34194089197E-01  0.34250905853E-01  0.00000000000E+00 0. -1.
       22    1    1    2    0    0 -0.19325087501E-03  0.26099056128E-03  0.70627513684E-03  0.77735869628E-03  0.00000000000E+00 0. -1.
</event>
<event>
 5   0  0.3490748E+06  0.9118800E+02  0.7546771E-02  0.1180000E+00
      -11   -1    0    0    0    0  0.00000000000E+00  0.00000000000E+00  0.34996269501E-01  0.35000000000E-01  0.51099999109E-03 0. -1.
       11   -1    0    0    0    0 -0.00000000000E+00 -0.00000000000E+00 -0.34996269501E-01  0.35000000000E-01  0.51099999109E-03 0.  1.
       22    1    1    2    0    0  0.11778556412E-03  0.55565495390E-04 -0.43067921022E-03  0.44993949094E-03  0.00000000000E+00 0. -1.
       22    1    1    2    0    0 -0.16355959096E-02  0.93845989053E-03  0.34941116200E-01  0.34991963109E-01  0.00000000000E+00 0. -1.
       22    1    1    2    0    0  0.15178103455E-02 -0.99402538592E-03 -0.34510436989E-01  0.34558097400E-01  0.00000000000E+00 0.  1.
</event>
<event>
 5   0  0.3490748E+06  0.9118800E+02  0.7546771E-02  0.1180000E+00
      -11   -1    0    0    0    0  0.00000000000E+00  0.00000000000E+00  0.34996269501E-01  0.35000000000E-01  0.51099999109E-03 0. -1.
       11   -1    0    0    0    0 -0.00000000000E+00 -0.00000000000E+00 -0.34996269501E-01  0.35000000000E-01  0.51099999109E-03 0.  1.
       22    1    1    2    0    0 -0.14576242363E-01 -0.12913765100E-01 -0.29074758853E-01  0.34993910511E-01  0.00000000000E+00 0.  1.
       22    1    1    2    0    0  0.35133522839E-05 -0.11915905683E-05  0.77381691684E-04  0.77470573383E-04  0.00000000000E+00 0. -1.
       22    1    1    2    0    0  0.14572729011E-01  0.12914956691E-01  0.28997377161E-01  0.34928618916E-01  0.00000000000E+00 0. -1.
</event>
<event>
 5   0  0.3490748E+06  0.9118800E+02  0.7546771E-02  0.1180000E+00
      -11   -1    0    0    0    0  0.00000000000E+00  0.00000000000E+00  0.34996269501E-01  0.35000000000E-01  0.51099999109E-03 0.  1.
       11   -1    0    0    0    0 -0.00000000000E+00 -0.00000000000E+00 -0.34996269501E-01  0.35000000000E-01  0.51099999109E-03 0. -1.
       22    1    1    2    0    0 -0.14272489376E-02 -0.28747630071E-02 -0.34852514555E-01  0.34999986753E-01  0.00000000000E+00 0. -1.
       22    1    1    2    0    0  0.22990252327E-07  0.11871790214E-06  0.18257415272E-06  0.21898815775E-06  0.00000000000E+00 0. -1.
       22    1    1    2    0    0  0.14272259474E-02  0.28746442892E-02  0.34852331981E-01  0.34999794259E-01  0.00000000000E+00 0.  1.
</event>
<event>
 5   0  0.3490748E+06  0.9118800E+02  0.7546771E-02  0.1180000E+00
      -11   -1    0    0    0    0  0.00000000000E+00  0.00000000000E+00  0.34996269501E-01  0.35000000000E-01  0.51099999109E-03 0. -1.
       11   -1    0    0    0    0 -0.00000000000E+00 -0.00000000000E+00 -0.34996269501E-01  0.35000000000E-01  0.51099999109E-03 0.  1.
       22    1    1    2    0    0 -0.48045719314E-02  0.20173897709E-01  0.19389110203E-01  0.28390273945E-01  0.00000000000E+00 0. -1.
       22    1    1    2    0    0  0.86940895422E-04  0.23903062259E-02 -0.18380599188E-01  0.18535575230E-01  0.00000000000E+00 0.  1.
       22    1    1    2    0    0  0.47176310359E-02 -0.22564203935E-01 -0.10085110148E-02  0.23074150825E-01  0.00000000000E+00 0.  1.
</event>
<event>
 5   0  0.3490748E+06  0.9118800E+02  0.7546771E-02  0.1180000E+00
      -11   -1    0    0    0    0  0.00000000000E+00  0.00000000000E+00  0.34996269501E-01  0.35000000000E-01  0.51099999109E-03 0. -1.
       11   -1    0    0    0    0 -0.00000000000E+00 -0.00000000000E+00 -0.34996269501E-01  0.35000000000E-01  0.51099999109E-03 0.  1.
       22    1    1    2    0    0 -0.18113172477E-02 -0.44495301220E-02  0.28681991612E-01  0.29081537636E-01  0.00000000000E+00 0. -1.
       22    1    1    2    0    0  0.74416025913E-02 -0.51757257895E-02 -0.28348494045E-01  0.29762437756E-01  0.00000000000E+00 0.  1.
       22    1    1    2    0    0 -0.56302853436E-02  0.96252559115E-02 -0.33349756669E-03  0.11156024607E-01  0.00000000000E+00 0. -1.
</event>
<event>
 5   0  0.3490748E+06  0.9118800E+02  0.7546771E-02  0.1180000E+00
      -11   -1    0    0    0    0  0.00000000000E+00  0.00000000000E+00  0.34996269501E-01  0.35000000000E-01  0.51099999109E-03 0.  1.
       11   -1    0    0    0    0 -0.00000000000E+00 -0.00000000000E+00 -0.34996269501E-01  0.35000000000E-01  0.51099999109E-03 0. -1.
       22    1    1    2    0    0  0.80803932176E-04 -0.54154291121E-04 -0.14695760925E-04  0.98376461062E-04  0.00000000000E+00 0.  1.
       22    1    1    2    0    0  0.16656734517E-02 -0.31107600302E-02  0.34775150757E-01  0.34953718059E-01  0.00000000000E+00 0.  1.
       22    1    1    2    0    0 -0.17464773838E-02  0.31649143213E-02 -0.34760454996E-01  0.34947905480E-01  0.00000000000E+00 0. -1.
</event>
<event>
 5   0  0.3490748E+06  0.9118800E+02  0.7546771E-02  0.1180000E+00
      -11   -1    0    0    0    0  0.00000000000E+00  0.00000000000E+00  0.34996269501E-01  0.35000000000E-01  0.51099999109E-03 0.  1.
       11   -1    0    0    0    0 -0.00000000000E+00 -0.00000000000E+00 -0.34996269501E-01  0.35000000000E-01  0.51099999109E-03 0. -1.
       22    1    1    2    0    0  0.44095865451E-03 -0.28461022488E-03  0.69343903094E-02  0.69542229241E-02  0.00000000000E+00 0.  1.
       22    1    1    2    0    0  0.95303797660E-03 -0.34662017511E-02  0.27825285075E-01  0.28056538017E-01  0.00000000000E+00 0.  1.
       22    1    1    2    0    0 -0.13939966311E-02  0.37508119760E-02 -0.34759675385E-01  0.34989239059E-01  0.00000000000E+00 0. -1.
</event>
<event>
 5   0  0.3490748E+06  0.9118800E+02  0.7546771E-02  0.1180000E+00
      -11   -1    0    0    0    0  0.00000000000E+00  0.00000000000E+00  0.34996269501E-01  0.35000000000E-01  0.51099999109E-03 0.  1.
       11   -1    0    0    0    0 -0.00000000000E+00 -0.00000000000E+00 -0.34996269501E-01  0.35000000000E-01  0.51099999109E-03 0. -1.
       22    1    1    2    0    0 -0.15977906115E-03 -0.12595388198E-03  0.20011241383E-02  0.20114401671E-02  0.00000000000E+00 0. -1.
       22    1    1    2    0    0 -0.50493003080E-02 -0.11054442137E-02  0.32584125741E-01  0.32991554841E-01  0.00000000000E+00 0.  1.
       22    1    1    2    0    0  0.52090793692E-02  0.12313980957E-02 -0.34585249880E-01  0.34997004992E-01  0.00000000000E+00 0. -1.
</event>
<event>
 5   0  0.3490748E+06  0.9118800E+02  0.7546771E-02  0.1180000E+00
      -11   -1    0    0    0    0  0.00000000000E+00  0.00000000000E+00  0.34996269501E-01  0.35000000000E-01  0.51099999109E-03 0.  1.
       11   -1    0    0    0    0 -0.00000000000E+00 -0.00000000000E+00 -0.34996269501E-01  0.35000000000E-01  0.51099999109E-03 0. -1.
       22    1    1    2    0    0 -0.13220089015E-01  0.12849913104E-01  0.29741659289E-01  0.34992246535E-01  0.00000000000E+00 0.  1.
       22    1    1    2    0    0  0.97311495600E-07 -0.12851074047E-06  0.84267388257E-05  0.84282804755E-05  0.00000000000E+00 0. -1.
       22    1    1    2    0    0  0.13219991704E-01 -0.12849784593E-01 -0.29750086027E-01  0.34999325184E-01  0.00000000000E+00 0. -1.
</event>
<event>
 5   0  0.3490748E+06  0.9118800E+02  0.7546771E-02  0.1180000E+00
      -11   -1    0    0    0    0  0.00000000000E+00  0.00000000000E+00  0.34996269501E-01  0.35000000000E-01  0.51099999109E-03 0. -1.
       11   -1    0    0    0    0 -0.00000000000E+00 -0.00000000000E+00 -0.34996269501E-01  0.35000000000E-01  0.51099999109E-03 0.  1.
       22    1    1    2    0    0 -0.25375994563E-03 -0.20725412123E-02  0.40466754842E-02  0.45536143513E-02  0.00000000000E+00 0.  1.
       22    1    1    2    0    0  0.41141870355E-02 -0.84830367689E-03  0.30386046642E-01  0.30675038462E-01  0.00000000000E+00 0. -1.
       22    1    1    2    0    0 -0.38604270898E-02  0.29208448892E-02 -0.34432722126E-01  0.34771347187E-01  0.00000000000E+00 0.  1.
</event>
<event>
 5   0  0.3490748E+06  0.9118800E+02  0.7546771E-02  0.1180000E+00
      -11   -1    0    0    0    0  0.00000000000E+00  0.00000000000E+00  0.34996269501E-01  0.35000000000E-01  0.51099999109E-03 0. -1.
       11   -1    0    0    0    0 -0.00000000000E+00 -0.00000000000E+00 -0.34996269501E-01  0.35000000000E-01  0.51099999109E-03 0.  1.
       22    1    1    2    0    0  0.18316065898E-02  0.29544671755E-03 -0.34941995784E-01  0.34991215195E-01  0.00000000000E+00 0.  1.
       22    1    1    2    0    0 -0.13053704182E-02  0.15426661252E-05  0.30234427865E-01  0.30262594447E-01  0.00000000000E+00 0. -1.
       22    1    1    2    0    0 -0.52623617163E-03 -0.29698938368E-03  0.47075679188E-02  0.47461903578E-02  0.00000000000E+00 0. -1.
</event>
<event>
 5   0  0.3490748E+06  0.9118800E+02  0.7546771E-02  0.1180000E+00
      -11   -1    0    0    0    0  0.00000000000E+00  0.00000000000E+00  0.34996269501E-01  0.35000000000E-01  0.51099999109E-03 0. -1.
       11   -1    0    0    0    0 -0.00000000000E+00 -0.00000000000E+00 -0.34996269501E-01  0.35000000000E-01  0.51099999109E-03 0. -1.
       22    1    1    2    0    0  0.14541990526E-06  0.83216947120E-08  0.34999964826E-01  0.34996412923E-01  0.00000000000E+00 0. -1.
       22    1    1    2    0    0 -0.15129494264E-10 -0.86578953680E-12 -0.35003550243E-01  0.34999998703E-01  0.00000000000E+00 0. -1.
       22    1    1    2    0    0 -0.14540477576E-06 -0.83208289224E-08  0.35854169319E-05  0.35883737766E-05  0.00000000000E+00 0.  1.
</event>
<event>
 5   0  0.3490748E+06  0.9118800E+02  0.7546771E-02  0.1180000E+00
      -11   -1    0    0    0    0  0.00000000000E+00  0.00000000000E+00  0.34996269501E-01  0.35000000000E-01  0.51099999109E-03 0. -1.
       11   -1    0    0    0    0 -0.00000000000E+00 -0.00000000000E+00 -0.34996269501E-01  0.35000000000E-01  0.51099999109E-03 0.  1.
       22    1    1    2    0    0 -0.11732813310E-09 -0.32007796118E-09  0.50288814314E-09  0.60754611064E-09  0.00000000000E+00 0.  1.
       22    1    1    2    0    0 -0.22272873551E-01  0.21385381637E-01 -0.16479822429E-01  0.34999999875E-01  0.00000000000E+00 0.  1.
       22    1    1    2    0    0  0.22272873668E-01 -0.21385381317E-01  0.16479821926E-01  0.34999999517E-01  0.00000000000E+00 0. -1.
</event>
<event>
 5   0  0.3490748E+06  0.9118800E+02  0.7546771E-02  0.1180000E+00
      -11   -1    0    0    0    0  0.00000000000E+00  0.00000000000E+00  0.34996269501E-01  0.35000000000E-01  0.51099999109E-03 0. -1.
       11   -1    0    0    0    0 -0.00000000000E+00 -0.00000000000E+00 -0.34996269501E-01  0.35000000000E-01  0.51099999109E-03 0.  1.
       22    1    1    2    0    0 -0.76327606236E-09  0.39120833272E-09  0.79059292834E-09  0.11664782404E-08  0.00000000000E+00 0. -1.
       22    1    1    2    0    0 -0.31874180173E-03  0.22625315059E-02  0.34925338728E-01  0.34999999006E-01  0.00000000000E+00 0. -1.
       22    1    1    2    0    0  0.31874256500E-03 -0.22625318971E-02 -0.34925339519E-01  0.34999999827E-01  0.00000000000E+00 0.  1.
</event>
<event>
 5   0  0.3490748E+06  0.9118800E+02  0.7546771E-02  0.1180000E+00
      -11   -1    0    0    0    0  0.00000000000E+00  0.00000000000E+00  0.34996269501E-01  0.35000000000E-01  0.51099999109E-03 0. -1.
       11   -1    0    0    0    0 -0.00000000000E+00 -0.00000000000E+00 -0.34996269501E-01  0.35000000000E-01  0.51099999109E-03 0.  1.
       22    1    1    2    0    0  0.81116774997E-02 -0.10074924758E-01 -0.90197983060E-03  0.12965993535E-01  0.00000000000E+00 0.  1.
       22    1    1    2    0    0 -0.63121095578E-03  0.38571432131E-03 -0.26767539810E-01  0.26777759247E-01  0.00000000000E+00 0.  1.
       22    1    1    2    0    0 -0.74804665439E-02  0.96892104366E-02  0.27669519640E-01  0.30256247218E-01  0.00000000000E+00 0. -1.
</event>
<event>
 5   0  0.3490748E+06  0.9118800E+02  0.7546771E-02  0.1180000E+00
      -11   -1    0    0    0    0  0.00000000000E+00  0.00000000000E+00  0.34996269501E-01  0.35000000000E-01  0.51099999109E-03 0.  1.
       11   -1    0    0    0    0 -0.00000000000E+00 -0.00000000000E+00 -0.34996269501E-01  0.35000000000E-01  0.51099999109E-03 0. -1.
       22    1    1    2    0    0  0.25018547583E-03  0.22637983588E-02  0.34902118639E-01  0.34976352887E-01  0.00000000000E+00 0.  1.
       22    1    1    2    0    0  0.26963652404E-03  0.23032680482E-03 -0.54594437138E-02  0.54709487254E-02  0.00000000000E+00 0.  1.
       22    1    1    2    0    0 -0.51982199987E-03 -0.24941251636E-02 -0.29442674925E-01  0.29552698388E-01  0.00000000000E+00 0. -1.
</event>
<event>
 5   0  0.3490748E+06  0.9118800E+02  0.7546771E-02  0.1180000E+00
      -11   -1    0    0    0    0  0.00000000000E+00  0.00000000000E+00  0.34996269501E-01  0.35000000000E-01  0.51099999109E-03 0.  1.
       11   -1    0    0    0    0 -0.00000000000E+00 -0.00000000000E+00 -0.34996269501E-01  0.35000000000E-01  0.51099999109E-03 0.  1.
       22    1    1    2    0    0  0.30559669648E-03 -0.42245808582E-03  0.11566400776E-02  0.12687302488E-02  0.00000000000E+00 0. -1.
       22    1    1    2    0    0 -0.30559669648E-03  0.42245808582E-03 -0.34942971180E-01  0.34946861019E-01  0.00000000000E+00 0.  1.
       22    1    1    2    0    0 -0.00000000000E+00 -0.00000000000E+00  0.33786331102E-01  0.33784408733E-01  0.00000000000E+00 0.  1.
</event>
<event>
 5   0  0.3490748E+06  0.9118800E+02  0.7546771E-02  0.1180000E+00
      -11   -1    0    0    0    0  0.00000000000E+00  0.00000000000E+00  0.34996269501E-01  0.35000000000E-01  0.51099999109E-03 0. -1.
       11   -1    0    0    0    0 -0.00000000000E+00 -0.00000000000E+00 -0.34996269501E-01  0.35000000000E-01  0.51099999109E-03 0.  1.
       22    1    1    2    0    0 -0.45512120648E-02 -0.15807760793E-01  0.30892118359E-01  0.34998882971E-01  0.00000000000E+00 0. -1.
       22    1    1    2    0    0  0.45512444735E-02  0.15807680250E-01 -0.30893320426E-01  0.34999911830E-01  0.00000000000E+00 0.  1.
       22    1    1    2    0    0 -0.32408615765E-07  0.80542435149E-07  0.12020675613E-05  0.12051986658E-05  0.00000000000E+00 0.  1.
</event>
<event>
 5   0  0.3490748E+06  0.9118800E+02  0.7546771E-02  0.1180000E+00
      -11   -1    0    0    0    0  0.00000000000E+00  0.00000000000E+00  0.34996269501E-01  0.35000000000E-01  0.51099999109E-03 0. -1.
       11   -1    0    0    0    0 -0.00000000000E+00 -0.00000000000E+00 -0.34996269501E-01  0.35000000000E-01  0.51099999109E-03 0.  1.
       22    1    1    2    0    0 -0.12308444717E-01 -0.68029352494E-02  0.32049167555E-01  0.34998955417E-01  0.00000000000E+00 0. -1.
       22    1    1    2    0    0  0.12308355004E-01  0.68029534509E-02 -0.32050270735E-01  0.34999937611E-01  0.00000000000E+00 0.  1.
       22    1    1    2    0    0  0.89713229506E-07 -0.18201497023E-07  0.11031804904E-05  0.11069719746E-05  0.00000000000E+00 0.  1.
</event>
<event>
 5   0  0.3490748E+06  0.9118800E+02  0.7546771E-02  0.1180000E+00
      -11   -1    0    0    0    0  0.00000000000E+00  0.00000000000E+00  0.34996269501E-01  0.35000000000E-01  0.51099999109E-03 0.  1.
       11   -1    0    0    0    0 -0.00000000000E+00 -0.00000000000E+00 -0.34996269501E-01  0.35000000000E-01  0.51099999109E-03 0. -1.
       22    1    1    2    0    0  0.33769151814E-02 -0.83216616280E-02  0.49305312892E-02  0.10245181657E-01  0.00000000000E+00 0.  1.
       22    1    1    2    0    0 -0.43227938516E-02  0.66591803790E-02 -0.31820978058E-01  0.32796430821E-01  0.00000000000E+00 0. -1.
       22    1    1    2    0    0  0.94587867015E-03  0.16624812490E-02  0.26890446769E-01  0.26958387522E-01  0.00000000000E+00 0.  1.
</event>
<event>
 5   0  0.3490748E+06  0.9118800E+02  0.7546771E-02  0.1180000E+00
      -11   -1    0    0    0    0  0.00000000000E+00  0.00000000000E+00  0.34996269501E-01  0.35000000000E-01  0.51099999109E-03 0. -1.
       11   -1    0    0    0    0 -0.00000000000E+00 -0.00000000000E+00 -0.34996269501E-01  0.35000000000E-01  0.51099999109E-03 0.  1.
       22    1    1    2    0    0  0.62348226197E-02 -0.11041943290E-01 -0.32436043350E-01  0.34826633959E-01  0.00000000000E+00 0.  1.
       22    1    1    2    0    0 -0.12771588051E-04 -0.46993613148E-06 -0.18036181844E-03  0.18081404772E-03  0.00000000000E+00 0.  1.
       22    1    1    2    0    0 -0.62220510316E-02  0.11042413226E-01  0.32616405168E-01  0.34992551993E-01  0.00000000000E+00 0. -1.
</event>
<event>
 5   0  0.3490748E+06  0.9118800E+02  0.7546771E-02  0.1180000E+00
      -11   -1    0    0    0    0  0.00000000000E+00  0.00000000000E+00  0.34996269501E-01  0.35000000000E-01  0.51099999109E-03 0. -1.
       11   -1    0    0    0    0 -0.00000000000E+00 -0.00000000000E+00 -0.34996269501E-01  0.35000000000E-01  0.51099999109E-03 0.  1.
       22    1    1    2    0    0 -0.26257478642E-01  0.16595857584E-01  0.63103564607E-02  0.31696975758E-01  0.00000000000E+00 0. -1.
       22    1    1    2    0    0  0.25965938094E-01 -0.16788064034E-01  0.10463205037E-02  0.30938064285E-01  0.00000000000E+00 0.  1.
       22    1    1    2    0    0  0.29154054782E-03  0.19220644983E-03 -0.73566769644E-02  0.73649599570E-02  0.00000000000E+00 0.  1.
</event>
<event>
 5   0  0.3490748E+06  0.9118800E+02  0.7546771E-02  0.1180000E+00
      -11   -1    0    0    0    0  0.00000000000E+00  0.00000000000E+00  0.34996269501E-01  0.35000000000E-01  0.51099999109E-03 0. -1.
       11   -1    0    0    0    0 -0.00000000000E+00 -0.00000000000E+00 -0.34996269501E-01  0.35000000000E-01  0.51099999109E-03 0.  1.
       22    1    1    2    0    0 -0.11390419779E-01 -0.23539650653E-01  0.23250190397E-01  0.34991830033E-01  0.00000000000E+00 0. -1.
       22    1    1    2    0    0 -0.28012880596E-05  0.19272557020E-05  0.96998517710E-05  0.10278553094E-04  0.00000000000E+00 0.  1.
       22    1    1    2    0    0  0.11393221067E-01  0.23537723397E-01 -0.23259890249E-01  0.34997891413E-01  0.00000000000E+00 0.  1.
</event>
<event>
 5   0  0.3490748E+06  0.9118800E+02  0.7546771E-02  0.1180000E+00
      -11   -1    0    0    0    0  0.00000000000E+00  0.00000000000E+00  0.34996269501E-01  0.35000000000E-01  0.51099999109E-03 0. -1.
       11   -1    0    0    0    0 -0.00000000000E+00 -0.00000000000E+00 -0.34996269501E-01  0.35000000000E-01  0.51099999109E-03 0.  1.
       22    1    1    2    0    0  0.74659514786E-02  0.51242237640E-03  0.31922991731E-01  0.32788418827E-01  0.00000000000E+00 0. -1.
       22    1    1    2    0    0 -0.73876431517E-02 -0.31123355248E-03 -0.34166627447E-01  0.34957582422E-01  0.00000000000E+00 0.  1.
       22    1    1    2    0    0 -0.78308326879E-04 -0.20118882392E-03  0.22436357169E-02  0.22539987504E-02  0.00000000000E+00 0.  1.
</event>
<event>
 5   0  0.3490748E+06  0.9118800E+02  0.7546771E-02  0.1180000E+00
      -11   -1    0    0    0    0  0.00000000000E+00  0.00000000000E+00  0.34996269501E-01  0.35000000000E-01  0.51099999109E-03 0. -1.
       11   -1    0    0    0    0 -0.00000000000E+00 -0.00000000000E+00 -0.34996269501E-01  0.35000000000E-01  0.51099999109E-03 0.  1.
       22    1    1    2    0    0 -0.23363027362E-01 -0.19582643192E-01 -0.16866838131E-01  0.34839649689E-01  0.00000000000E+00 0.  1.
       22    1    1    2    0    0 -0.19895007253E-04  0.37764951516E-04  0.62580257586E-03  0.62725661960E-03  0.00000000000E+00 0.  1.
       22    1    1    2    0    0  0.23382922369E-01  0.19544878240E-01  0.16241035556E-01  0.34533093691E-01  0.00000000000E+00 0. -1.
</event>
<event>
 5   0  0.3490748E+06  0.9118800E+02  0.7546771E-02  0.1180000E+00
      -11   -1    0    0    0    0  0.00000000000E+00  0.00000000000E+00  0.34996269501E-01  0.35000000000E-01  0.51099999109E-03 0.  1.
       11   -1    0    0    0    0 -0.00000000000E+00 -0.00000000000E+00 -0.34996269501E-01  0.35000000000E-01  0.51099999109E-03 0. -1.
       22    1    1    2    0    0  0.21105067709E-01  0.17190863769E-01 -0.22001142496E-01  0.34999999304E-01  0.00000000000E+00 0. -1.
       22    1    1    2    0    0 -0.32312232010E-09  0.26631560847E-09  0.38584906476E-08  0.38811444336E-08  0.00000000000E+00 0. -1.
       22    1    1    2    0    0 -0.21105067386E-01 -0.17190864035E-01  0.22001138638E-01  0.34999996815E-01  0.00000000000E+00 0.  1.
</event>
<event>
 5   0  0.3490748E+06  0.9118800E+02  0.7546771E-02  0.1180000E+00
      -11   -1    0    0    0    0  0.00000000000E+00  0.00000000000E+00  0.34996269501E-01  0.35000000000E-01  0.51099999109E-03 0.  1.
       11   -1    0    0    0    0 -0.00000000000E+00 -0.00000000000E+00 -0.34996269501E-01  0.35000000000E-01  0.51099999109E-03 0. -1.
       22    1    1    2    0    0  0.16334203362E-02 -0.57850165657E-03 -0.34956950687E-01  0.34999873249E-01  0.00000000000E+00 0. -1.
       22    1    1    2    0    0 -0.16351065967E-02  0.57951347433E-03  0.34943335291E-01  0.34986370071E-01  0.00000000000E+00 0.  1.
       22    1    1    2    0    0  0.16862604816E-05 -0.10118177538E-05  0.13615395328E-04  0.13756679815E-04  0.00000000000E+00 0.  1.
</event>
<event>
 5   0  0.3490748E+06  0.9118800E+02  0.7546771E-02  0.1180000E+00
      -11   -1    0    0    0    0  0.00000000000E+00  0.00000000000E+00  0.34996269501E-01  0.35000000000E-01  0.51099999109E-03 0.  1.
       11   -1    0    0    0    0 -0.00000000000E+00 -0.00000000000E+00 -0.34996269501E-01  0.35000000000E-01  0.51099999109E-03 0. -1.
       22    1    1    2    0    0  0.47095645627E-03  0.19159278226E-02 -0.34944338213E-01  0.34999990751E-01  0.00000000000E+00 0. -1.
       22    1    1    2    0    0 -0.47098440628E-03 -0.19158733728E-02  0.34944259416E-01  0.34999909474E-01  0.00000000000E+00 0.  1.
       22    1    1    2    0    0  0.27950013059E-07 -0.54449828636E-07  0.78797177781E-07  0.99774657578E-07  0.00000000000E+00 0.  1.
</event>
<event>
 5   0  0.3490748E+06  0.9118800E+02  0.7546771E-02  0.1180000E+00
      -11   -1    0    0    0    0  0.00000000000E+00  0.00000000000E+00  0.34996269501E-01  0.35000000000E-01  0.51099999109E-03 0.  1.
       11   -1    0    0    0    0 -0.00000000000E+00 -0.00000000000E+00 -0.34996269501E-01  0.35000000000E-01  0.51099999109E-03 0.  1.
       22    1    1    2    0    0 -0.48930902851E-04 -0.46282172261E-06 -0.56703976373E-02  0.56706087692E-02  0.00000000000E+00 0.  1.
       22    1    1    2    0    0  0.22433939385E-01  0.13067345391E-01  0.21714323611E-01  0.33845959904E-01  0.00000000000E+00 0.  1.
       22    1    1    2    0    0 -0.22385008482E-01 -0.13066882570E-01 -0.16043925974E-01  0.30483431327E-01  0.00000000000E+00 0. -1.
</event>
<event>
 5   0  0.3490748E+06  0.9118800E+02  0.7546771E-02  0.1180000E+00
      -11   -1    0    0    0    0  0.00000000000E+00  0.00000000000E+00  0.34996269501E-01  0.35000000000E-01  0.51099999109E-03 0.  1.
       11   -1    0    0    0    0 -0.00000000000E+00 -0.00000000000E+00 -0.34996269501E-01  0.35000000000E-01  0.51099999109E-03 0. -1.
       22    1    1    2    0    0 -0.12931546798E-03 -0.27445777603E-03  0.34871156621E-01  0.34872476449E-01  0.00000000000E+00 0.  1.
       22    1    1    2    0    0 -0.11726135981E-02 -0.59584100948E-03 -0.38811125317E-02  0.40979365104E-02  0.00000000000E+00 0.  1.
       22    1    1    2    0    0  0.13019290660E-02  0.87029878551E-03 -0.30990044089E-01  0.31029587041E-01  0.00000000000E+00 0. -1.
</event>
<event>
 5   0  0.3490748E+06  0.9118800E+02  0.7546771E-02  0.1180000E+00
      -11   -1    0    0    0    0  0.00000000000E+00  0.00000000000E+00  0.34996269501E-01  0.35000000000E-01  0.51099999109E-03 0.  1.
       11   -1    0    0    0    0 -0.00000000000E+00 -0.00000000000E+00 -0.34996269501E-01  0.35000000000E-01  0.51099999109E-03 0.  1.
       22    1    1    2    0    0 -0.17072549069E-03  0.79292283065E-04  0.34987594107E-01  0.34988100490E-01  0.00000000000E+00 0.  1.
       22    1    1    2    0    0  0.17089038092E-03 -0.79918637843E-04 -0.34999483775E-01  0.34999992214E-01  0.00000000000E+00 0.  1.
       22    1    1    2    0    0 -0.16489022855E-06  0.62635477861E-06  0.11889667449E-04  0.11907296131E-04  0.00000000000E+00 0.  1.
</event>
<event>
 5   0  0.3490748E+06  0.9118800E+02  0.7546771E-02  0.1180000E+00
      -11   -1    0    0    0    0  0.00000000000E+00  0.00000000000E+00  0.34996269501E-01  0.35000000000E-01  0.51099999109E-03 0. -1.
       11   -1    0    0    0    0 -0.00000000000E+00 -0.00000000000E+00 -0.34996269501E-01  0.35000000000E-01  0.51099999109E-03 0.  1.
       22    1    1    2    0    0 -0.39010388827E-04  0.15186788301E-03 -0.77342641651E-02  0.77358534009E-02  0.00000000000E+00 0.  1.
       22    1    1    2    0    0  0.12966330746E-01  0.25103314364E-02  0.32012678479E-01  0.34630031480E-01  0.00000000000E+00 0. -1.
       22    1    1    2    0    0 -0.12927320357E-01 -0.26621993194E-02 -0.24278414314E-01  0.27634115119E-01  0.00000000000E+00 0.  1.
</event>
<event>
 5   0  0.3490748E+06  0.9118800E+02  0.7546771E-02  0.1180000E+00
      -11   -1    0    0    0    0  0.00000000000E+00  0.00000000000E+00  0.34996269501E-01  0.35000000000E-01  0.51099999109E-03 0. -1.
       11   -1    0    0    0    0 -0.00000000000E+00 -0.00000000000E+00 -0.34996269501E-01  0.35000000000E-01  0.51099999109E-03 0.  1.
       22    1    1    2    0    0 -0.28371832297E-03  0.22404661794E-02  0.34926630558E-01  0.34999567239E-01  0.00000000000E+00 0. -1.
       22    1    1    2    0    0  0.28372949968E-03 -0.22404356045E-02 -0.34927064094E-01  0.34999998005E-01  0.00000000000E+00 0.  1.
       22    1    1    2    0    0 -0.11176719664E-07 -0.30574809499E-07  0.43353554427E-06  0.43475603065E-06  0.00000000000E+00 0. -1.
</event>
<event>
 5   0  0.3490748E+06  0.9118800E+02  0.7546771E-02  0.1180000E+00
      -11   -1    0    0    0    0  0.00000000000E+00  0.00000000000E+00  0.34996269501E-01  0.35000000000E-01  0.51099999109E-03 0. -1.
       11   -1    0    0    0    0 -0.00000000000E+00 -0.00000000000E+00 -0.34996269501E-01  0.35000000000E-01  0.51099999109E-03 0.  1.
       22    1    1    2    0    0  0.14582395033E-01 -0.13706226368E-01  0.28713950296E-01  0.34999968968E-01  0.00000000000E+00 0. -1.
       22    1    1    2    0    0  0.25738421667E-08  0.28989520819E-08  0.34006818095E-07  0.34227069165E-07  0.00000000000E+00 0.  1.
       22    1    1    2    0    0 -0.14582397607E-01  0.13706223469E-01 -0.28713984303E-01  0.34999996805E-01  0.00000000000E+00 0.  1.
</event>
<event>
 5   0  0.3490748E+06  0.9118800E+02  0.7546771E-02  0.1180000E+00
      -11   -1    0    0    0    0  0.00000000000E+00  0.00000000000E+00  0.34996269501E-01  0.35000000000E-01  0.51099999109E-03 0.  1.
       11   -1    0    0    0    0 -0.00000000000E+00 -0.00000000000E+00 -0.34996269501E-01  0.35000000000E-01  0.51099999109E-03 0. -1.
       22    1    1    2    0    0 -0.51514183859E-04 -0.25559154501E-04  0.14390618777E-03  0.15497087596E-03  0.00000000000E+00 0. -1.
       22    1    1    2    0    0 -0.13491750379E-01 -0.45263556539E-02  0.31806805347E-01  0.34845201824E-01  0.00000000000E+00 0.  1.
       22    1    1    2    0    0  0.13543264563E-01  0.45519148084E-02 -0.31950711535E-01  0.34999827300E-01  0.00000000000E+00 0. -1.
</event>
<event>
 5   0  0.3490748E+06  0.9118800E+02  0.7546771E-02  0.1180000E+00
      -11   -1    0    0    0    0  0.00000000000E+00  0.00000000000E+00  0.34996269501E-01  0.35000000000E-01  0.51099999109E-03 0. -1.
       11   -1    0    0    0    0 -0.00000000000E+00 -0.00000000000E+00 -0.34996269501E-01  0.35000000000E-01  0.51099999109E-03 0.  1.
       22    1    1    2    0    0 -0.29446852401E-01  0.99664487507E-02 -0.16077211680E-01  0.34998913589E-01  0.00000000000E+00 0.  1.
       22    1    1    2    0    0 -0.72323762176E-06  0.11037292503E-05  0.17728606032E-06  0.13314357899E-05  0.00000000000E+00 0.  1.
       22    1    1    2    0    0  0.29447575638E-01 -0.99675524799E-02  0.16077034394E-01  0.34999754975E-01  0.00000000000E+00 0. -1.
</event>
<event>
 5   0  0.3490748E+06  0.9118800E+02  0.7546771E-02  0.1180000E+00
      -11   -1    0    0    0    0  0.00000000000E+00  0.00000000000E+00  0.34996269501E-01  0.35000000000E-01  0.51099999109E-03 0. -1.
       11   -1    0    0    0    0 -0.00000000000E+00 -0.00000000000E+00 -0.34996269501E-01  0.35000000000E-01  0.51099999109E-03 0.  1.
       22    1    1    2    0    0 -0.36890208313E-02  0.21314758068E-02 -0.32813920491E-01  0.33089355416E-01  0.00000000000E+00 0.  1.
       22    1    1    2    0    0 -0.31880454482E-03 -0.16088663075E-03 -0.18885272067E-02  0.19219926785E-02  0.00000000000E+00 0. -1.
       22    1    1    2    0    0  0.40078253762E-02 -0.19705891761E-02  0.34702447698E-01  0.34988651906E-01  0.00000000000E+00 0. -1.
</event>
<event>
 5   0  0.3490748E+06  0.9118800E+02  0.7546771E-02  0.1180000E+00
      -11   -1    0    0    0    0  0.00000000000E+00  0.00000000000E+00  0.34996269501E-01  0.35000000000E-01  0.51099999109E-03 0. -1.
       11   -1    0    0    0    0 -0.00000000000E+00 -0.00000000000E+00 -0.34996269501E-01  0.35000000000E-01  0.51099999109E-03 0.  1.
       22    1    1    2    0    0 -0.50858959723E-02 -0.57555071220E-02 -0.36871590579E-02  0.85198205374E-02  0.00000000000E+00 0. -1.
       22    1    1    2    0    0  0.66628131519E-02  0.64627455293E-02 -0.28127030793E-01  0.29619082027E-01  0.00000000000E+00 0.  1.
       22    1    1    2    0    0 -0.15769171796E-02 -0.70723840736E-03  0.31814189851E-01  0.31861097436E-01  0.00000000000E+00 0. -1.
</event>
<event>
 5   0  0.3490748E+06  0.9118800E+02  0.7546771E-02  0.1180000E+00
      -11   -1    0    0    0    0  0.00000000000E+00  0.00000000000E+00  0.34996269501E-01  0.35000000000E-01  0.51099999109E-03 0.  1.
       11   -1    0    0    0    0 -0.00000000000E+00 -0.00000000000E+00 -0.34996269501E-01  0.35000000000E-01  0.51099999109E-03 0. -1.
       22    1    1    2    0    0  0.29751040319E-01  0.14551920795E-02 -0.18012983152E-01  0.34809618586E-01  0.00000000000E+00 0. -1.
       22    1    1    2    0    0 -0.29743737239E-01 -0.14362782841E-02  0.18267537124E-01  0.34935021294E-01  0.00000000000E+00 0.  1.
       22    1    1    2    0    0 -0.73030800374E-05 -0.18913795483E-04 -0.25455397161E-03  0.25536012042E-03  0.00000000000E+00 0. -1.
</event>
<event>
 5   0  0.3490748E+06  0.9118800E+02  0.7546771E-02  0.1180000E+00
      -11   -1    0    0    0    0  0.00000000000E+00  0.00000000000E+00  0.34996269501E-01  0.35000000000E-01  0.51099999109E-03 0. -1.
       11   -1    0    0    0    0 -0.00000000000E+00 -0.00000000000E+00 -0.34996269501E-01  0.35000000000E-01  0.51099999109E-03 0.  1.
       22    1    1    2    0    0 -0.10612220400E-02  0.10919678006E-01  0.33040421379E-01  0.34814293112E-01  0.00000000000E+00 0. -1.
       22    1    1    2    0    0  0.16012172089E-02 -0.10568603561E-01 -0.32800657569E-01  0.34498440759E-01  0.00000000000E+00 0.  1.
       22    1    1    2    0    0 -0.53999516888E-03 -0.35107444469E-03 -0.23976380990E-03  0.68726612943E-03  0.00000000000E+00 0. -1.
</event>
<event>
 5   0  0.3490748E+06  0.9118800E+02  0.7546771E-02  0.1180000E+00
      -11   -1    0    0    0    0  0.00000000000E+00  0.00000000000E+00  0.34996269501E-01  0.35000000000E-01  0.51099999109E-03 0.  1.
       11   -1    0    0    0    0 -0.00000000000E+00 -0.00000000000E+00 -0.34996269501E-01  0.35000000000E-01  0.51099999109E-03 0.  1.
       22    1    1    2    0    0 -0.00000000000E+00  0.00000000000E+00  0.34889644069E-01  0.34888973175E-01  0.00000000000E+00 0.  1.
       22    1    1    2    0    0 -0.16392201163E-02  0.52300722730E-03 -0.89194774816E-02  0.90839230343E-02  0.00000000000E+00 0. -1.
       22    1    1    2    0    0  0.16392201163E-02 -0.52300722730E-03 -0.25970166588E-01  0.26027103791E-01  0.00000000000E+00 0.  1.
</event>
<event>
 5   0  0.3490748E+06  0.9118800E+02  0.7546771E-02  0.1180000E+00
      -11   -1    0    0    0    0  0.00000000000E+00  0.00000000000E+00  0.34996269501E-01  0.35000000000E-01  0.51099999109E-03 0. -1.
       11   -1    0    0    0    0 -0.00000000000E+00 -0.00000000000E+00 -0.34996269501E-01  0.35000000000E-01  0.51099999109E-03 0.  1.
       22    1    1    2    0    0  0.10123295232E-02  0.12215532358E-02  0.34964023481E-01  0.34999999162E-01  0.00000000000E+00 0. -1.
       22    1    1    2    0    0 -0.10123301938E-02 -0.12215533697E-02 -0.34964024166E-01  0.34999999870E-01  0.00000000000E+00 0.  1.
       22    1    1    2    0    0  0.67060666290E-09  0.13394876350E-09  0.68460955783E-09  0.96764963403E-09  0.00000000000E+00 0. -1.
</event>
<event>
 5   0  0.3490748E+06  0.9118800E+02  0.7546771E-02  0.1180000E+00
      -11   -1    0    0    0    0  0.00000000000E+00  0.00000000000E+00  0.34996269501E-01  0.35000000000E-01  0.51099999109E-03 0. -1.
       11   -1    0    0    0    0 -0.00000000000E+00 -0.00000000000E+00 -0.34996269501E-01  0.35000000000E-01  0.51099999109E-03 0.  1.
       22    1    1    2    0    0  0.11418999425E-01  0.78367324685E-02  0.32120942352E-01  0.34979463421E-01  0.00000000000E+00 0. -1.
       22    1    1    2    0    0  0.13075824947E-04  0.34224408092E-04 -0.95128093048E-05  0.37852091728E-04  0.00000000000E+00 0.  1.
       22    1    1    2    0    0 -0.11432075250E-01 -0.78709568766E-02 -0.32111429543E-01  0.34982684487E-01  0.00000000000E+00 0.  1.
</event>
<event>
 5   0  0.3490748E+06  0.9118800E+02  0.7546771E-02  0.1180000E+00
      -11   -1    0    0    0    0  0.00000000000E+00  0.00000000000E+00  0.34996269501E-01  0.35000000000E-01  0.51099999109E-03 0.  1.
       11   -1    0    0    0    0 -0.00000000000E+00 -0.00000000000E+00 -0.34996269501E-01  0.35000000000E-01  0.51099999109E-03 0.  1.
       22    1    1    2    0    0  0.10097632736E-03  0.63431939254E-04  0.12253232184E-03  0.17097952948E-03  0.00000000000E+00 0.  1.
       22    1    1    2    0    0  0.41197764718E-03 -0.23000627242E-03  0.34849567912E-01  0.34852761901E-01  0.00000000000E+00 0.  1.
       22    1    1    2    0    0 -0.51295397455E-03  0.16657433316E-03 -0.34972100234E-01  0.34976258570E-01  0.00000000000E+00 0.  1.
</event>
<event>
 5   0  0.3490748E+06  0.9118800E+02  0.7546771E-02  0.1180000E+00
      -11   -1    0    0    0    0  0.00000000000E+00  0.00000000000E+00  0.34996269501E-01  0.35000000000E-01  0.51099999109E-03 0. -1.
       11   -1    0    0    0    0 -0.00000000000E+00 -0.00000000000E+00 -0.34996269501E-01  0.35000000000E-01  0.51099999109E-03 0.  1.
       22    1    1    2    0    0  0.15410003987E-07  0.10734987064E-06  0.16791180060E-06  0.19988955883E-06  0.00000000000E+00 0.  1.
       22    1    1    2    0    0 -0.60293971550E-02 -0.60257528735E-02 -0.33946076590E-01  0.34999992051E-01  0.00000000000E+00 0.  1.
       22    1    1    2    0    0  0.60293817450E-02  0.60256455236E-02  0.33945908678E-01  0.34999808059E-01  0.00000000000E+00 0. -1.
</event>
<event>
 5   0  0.3490748E+06  0.9118800E+02  0.7546771E-02  0.1180000E+00
      -11   -1    0    0    0    0  0.00000000000E+00  0.00000000000E+00  0.34996269501E-01  0.35000000000E-01  0.51099999109E-03 0.  1.
       11   -1    0    0    0    0 -0.00000000000E+00 -0.00000000000E+00 -0.34996269501E-01  0.35000000000E-01  0.51099999109E-03 0. -1.
       22    1    1    2    0    0 -0.12058939817E-01  0.20423440917E-01 -0.70596646169E-02  0.24746188250E-01  0.00000000000E+00 0. -1.
       22    1    1    2    0    0 -0.80525357806E-02 -0.22958363579E-01  0.23466007955E-02  0.24442510632E-01  0.00000000000E+00 0. -1.
       22    1    1    2    0    0  0.20111475598E-01  0.25349226621E-02  0.47130638214E-02  0.20811301118E-01  0.00000000000E+00 0.  1.
</event>
<event>
 5   0  0.3490748E+06  0.9118800E+02  0.7546771E-02  0.1180000E+00
      -11   -1    0    0    0    0  0.00000000000E+00  0.00000000000E+00  0.34996269501E-01  0.35000000000E-01  0.51099999109E-03 0. -1.
       11   -1    0    0    0    0 -0.00000000000E+00 -0.00000000000E+00 -0.34996269501E-01  0.35000000000E-01  0.51099999109E-03 0. -1.
       22    1    1    2    0    0 -0.15962810794E-06  0.50116009783E-07  0.26891256985E-05  0.26943254758E-05  0.00000000000E+00 0.  1.
       22    1    1    2    0    0  0.15963686681E-06 -0.50118759673E-07  0.34997418010E-01  0.34997308270E-01  0.00000000000E+00 0. -1.
       22    1    1    2    0    0 -0.87588721755E-11  0.27498899117E-11 -0.35000107135E-01  0.34999997404E-01  0.00000000000E+00 0. -1.
</event>
<event>
 5   0  0.3490748E+06  0.9118800E+02  0.7546771E-02  0.1180000E+00
      -11   -1    0    0    0    0  0.00000000000E+00  0.00000000000E+00  0.34996269501E-01  0.35000000000E-01  0.51099999109E-03 0.  1.
       11   -1    0    0    0    0 -0.00000000000E+00 -0.00000000000E+00 -0.34996269501E-01  0.35000000000E-01  0.51099999109E-03 0. -1.
       22    1    1    2    0    0  0.90566539631E-02 -0.14316184721E-01 -0.30627174166E-01  0.34999998905E-01  0.00000000000E+00 0. -1.
       22    1    1    2    0    0 -0.90566529152E-02  0.14316186513E-01  0.30627161707E-01  0.34999988465E-01  0.00000000000E+00 0.  1.
       22    1    1    2    0    0 -0.10479502989E-08 -0.17927890599E-08  0.12458232733E-07  0.12630116994E-07  0.00000000000E+00 0. -1.
</event>
<event>
 5   0  0.3490748E+06  0.9118800E+02  0.7546771E-02  0.1180000E+00
      -11   -1    0    0    0    0  0.00000000000E+00  0.00000000000E+00  0.34996269501E-01  0.35000000000E-01  0.51099999109E-03 0.  1.
       11   -1    0    0    0    0 -0.00000000000E+00 -0.00000000000E+00 -0.34996269501E-01  0.35000000000E-01  0.51099999109E-03 0. -1.
       22    1    1    2    0    0  0.72495455868E-09  0.84053094051E-09  0.17722543193E-09  0.11240374673E-08  0.00000000000E+00 0.  1.
       22    1    1    2    0    0  0.48180897556E-02  0.12725752682E-01  0.32246568353E-01  0.34999999154E-01  0.00000000000E+00 0.  1.
       22    1    1    2    0    0 -0.48180904806E-02 -0.12725753523E-01 -0.32246568530E-01  0.34999999722E-01  0.00000000000E+00 0. -1.
</event>
<event>
 5   0  0.3490748E+06  0.9118800E+02  0.7546771E-02  0.1180000E+00
      -11   -1    0    0    0    0  0.00000000000E+00  0.00000000000E+00  0.34996269501E-01  0.35000000000E-01  0.51099999109E-03 0.  1.
       11   -1    0    0    0    0 -0.00000000000E+00 -0.00000000000E+00 -0.34996269501E-01  0.35000000000E-01  0.51099999109E-03 0. -1.
       22    1    1    2    0    0 -0.96541617515E-03  0.15117178335E-02  0.34941934127E-01  0.34987941919E-01  0.00000000000E+00 0.  1.
       22    1    1    2    0    0 -0.25575713699E-04 -0.11762488272E-03 -0.24483317608E-03  0.27282414533E-03  0.00000000000E+00 0. -1.
       22    1    1    2    0    0  0.99099188885E-03 -0.13940929508E-02 -0.34697100951E-01  0.34739233936E-01  0.00000000000E+00 0. -1.
</event>
<event>
 5   0  0.3490748E+06  0.9118800E+02  0.7546771E-02  0.1180000E+00
      -11   -1    0    0    0    0  0.00000000000E+00  0.00000000000E+00  0.34996269501E-01  0.35000000000E-01  0.51099999109E-03 0. -1.
       11   -1    0    0    0    0 -0.00000000000E+00 -0.00000000000E+00 -0.34996269501E-01  0.35000000000E-01  0.51099999109E-03 0. -1.
       22    1    1    2    0    0  0.47847601672E-11  0.44300763035E-11 -0.35000294437E-01  0.34999950148E-01  0.00000000000E+00 0. -1.
       22    1    1    2    0    0 -0.82192455983E-07 -0.76099707999E-07  0.35000281377E-01  0.34999937088E-01  0.00000000000E+00 0. -1.
       22    1    1    2    0    0  0.82187671223E-07  0.76095277923E-07  0.13059674629E-07  0.11276462089E-06  0.00000000000E+00 0.  1.
</event>
<event>
 5   0  0.3490748E+06  0.9118800E+02  0.7546771E-02  0.1180000E+00
      -11   -1    0    0    0    0  0.00000000000E+00  0.00000000000E+00  0.34996269501E-01  0.35000000000E-01  0.51099999109E-03 0.  1.
       11   -1    0    0    0    0 -0.00000000000E+00 -0.00000000000E+00 -0.34996269501E-01  0.35000000000E-01  0.51099999109E-03 0. -1.
       22    1    1    2    0    0 -0.26557383920E-02 -0.58298823534E-03  0.34894120766E-01  0.34999892653E-01  0.00000000000E+00 0.  1.
       22    1    1    2    0    0  0.26557325890E-02  0.58298830420E-03 -0.34894228417E-01  0.34999999540E-01  0.00000000000E+00 0. -1.
       22    1    1    2    0    0  0.58029763195E-08 -0.68863618876E-10  0.10765122428E-06  0.10780753854E-06  0.00000000000E+00 0. -1.
</event>
<event>
 5   0  0.3490748E+06  0.9118800E+02  0.7546771E-02  0.1180000E+00
      -11   -1    0    0    0    0  0.00000000000E+00  0.00000000000E+00  0.34996269501E-01  0.35000000000E-01  0.51099999109E-03 0. -1.
       11   -1    0    0    0    0 -0.00000000000E+00 -0.00000000000E+00 -0.34996269501E-01  0.35000000000E-01  0.51099999109E-03 0.  1.
       22    1    1    2    0    0 -0.37984461647E-02  0.13135459904E-02 -0.34768463503E-01  0.34999995010E-01  0.00000000000E+00 0.  1.
       22    1    1    2    0    0  0.37984397664E-02 -0.13134964339E-02  0.34768364338E-01  0.34999893947E-01  0.00000000000E+00 0. -1.
       22    1    1    2    0    0  0.63982756078E-08 -0.49556441597E-07  0.99164862929E-07  0.11104255434E-06  0.00000000000E+00 0. -1.
</event>
<event>
 5   0  0.3490748E+06  0.9118800E+02  0.7546771E-02  0.1180000E+00
      -11   -1    0    0    0    0  0.00000000000E+00  0.00000000000E+00  0.34996269501E-01  0.35000000000E-01  0.51099999109E-03 0.  1.
       11   -1    0    0    0    0 -0.00000000000E+00 -0.00000000000E+00 -0.34996269501E-01  0.35000000000E-01  0.51099999109E-03 0. -1.
       22    1    1    2    0    0 -0.55170789492E-02 -0.30524233870E-02 -0.34426509275E-01  0.34999142697E-01  0.00000000000E+00 0. -1.
       22    1    1    2    0    0 -0.97483788934E-06 -0.17578945835E-06  0.93868908308E-04  0.93874134658E-04  0.00000000000E+00 0. -1.
       22    1    1    2    0    0  0.55180537871E-02  0.30525991764E-02  0.34332640367E-01  0.34906983168E-01  0.00000000000E+00 0.  1.
</event>
<event>
 5   0  0.3490748E+06  0.9118800E+02  0.7546771E-02  0.1180000E+00
      -11   -1    0    0    0    0  0.00000000000E+00  0.00000000000E+00  0.34996269501E-01  0.35000000000E-01  0.51099999109E-03 0.  1.
       11   -1    0    0    0    0 -0.00000000000E+00 -0.00000000000E+00 -0.34996269501E-01  0.35000000000E-01  0.51099999109E-03 0. -1.
       22    1    1    2    0    0  0.27807662392E-03  0.91787512676E-05  0.19927207982E-02  0.20120504561E-02  0.00000000000E+00 0. -1.
       22    1    1    2    0    0  0.25994894982E-02  0.20614639050E-02  0.32823983078E-01  0.32991223745E-01  0.00000000000E+00 0.  1.
       22    1    1    2    0    0 -0.28775661222E-02 -0.20706426562E-02 -0.34816703877E-01  0.34996725799E-01  0.00000000000E+00 0. -1.
</event>
<event>
 5   0  0.3490748E+06  0.9118800E+02  0.7546771E-02  0.1180000E+00
      -11   -1    0    0    0    0  0.00000000000E+00  0.00000000000E+00  0.34996269501E-01  0.35000000000E-01  0.51099999109E-03 0. -1.
       11   -1    0    0    0    0 -0.00000000000E+00 -0.00000000000E+00 -0.34996269501E-01  0.35000000000E-01  0.51099999109E-03 0.  1.
       22    1    1    2    0    0 -0.69642673430E-02  0.58955341666E-02  0.33001978479E-01  0.34240165394E-01  0.00000000000E+00 0. -1.
       22    1    1    2    0    0  0.69390276707E-02 -0.59060506350E-02 -0.33776899188E-01  0.34984431650E-01  0.00000000000E+00 0.  1.
       22    1    1    2    0    0  0.25239672295E-04  0.10516468408E-04  0.77492070963E-03  0.77540295549E-03  0.00000000000E+00 0.  1.
</event>
<event>
 5   0  0.3490748E+06  0.9118800E+02  0.7546771E-02  0.1180000E+00
      -11   -1    0    0    0    0  0.00000000000E+00  0.00000000000E+00  0.34996269501E-01  0.35000000000E-01  0.51099999109E-03 0. -1.
       11   -1    0    0    0    0 -0.00000000000E+00 -0.00000000000E+00 -0.34996269501E-01  0.35000000000E-01  0.51099999109E-03 0.  1.
       22    1    1    2    0    0  0.19656564851E-02 -0.38697430255E-02  0.34697920046E-01  0.34968333847E-01  0.00000000000E+00 0. -1.
       22    1    1    2    0    0  0.70001266162E-04  0.21766485062E-03 -0.84276817762E-02  0.84307827801E-02  0.00000000000E+00 0.  1.
       22    1    1    2    0    0 -0.20356577513E-02  0.36520781749E-02 -0.26270238270E-01  0.26600883373E-01  0.00000000000E+00 0.  1.
</event>
<event>
 5   0  0.3490748E+06  0.9118800E+02  0.7546771E-02  0.1180000E+00
      -11   -1    0    0    0    0  0.00000000000E+00  0.00000000000E+00  0.34996269501E-01  0.35000000000E-01  0.51099999109E-03 0.  1.
       11   -1    0    0    0    0 -0.00000000000E+00 -0.00000000000E+00 -0.34996269501E-01  0.35000000000E-01  0.51099999109E-03 0. -1.
       22    1    1    2    0    0  0.42423238102E-08 -0.65492020044E-08  0.14677360720E-06  0.14698088695E-06  0.00000000000E+00 0. -1.
       22    1    1    2    0    0 -0.28185054919E-03 -0.90314995220E-03 -0.34987210043E-01  0.34999999802E-01  0.00000000000E+00 0. -1.
       22    1    1    2    0    0  0.28184630687E-03  0.90315650140E-03  0.34987063269E-01  0.34999853217E-01  0.00000000000E+00 0.  1.
</event>
<event>
 5   0  0.3490748E+06  0.9118800E+02  0.7546771E-02  0.1180000E+00
      -11   -1    0    0    0    0  0.00000000000E+00  0.00000000000E+00  0.34996269501E-01  0.35000000000E-01  0.51099999109E-03 0. -1.
       11   -1    0    0    0    0 -0.00000000000E+00 -0.00000000000E+00 -0.34996269501E-01  0.35000000000E-01  0.51099999109E-03 0.  1.
       22    1    1    2    0    0  0.46726359712E-02  0.45623722380E-03 -0.34680362131E-01  0.34996702657E-01  0.00000000000E+00 0.  1.
       22    1    1    2    0    0 -0.46941872763E-02 -0.45486914235E-03  0.34352531272E-01  0.34674756018E-01  0.00000000000E+00 0. -1.
       22    1    1    2    0    0  0.21551305054E-04 -0.13680814536E-05  0.32783085921E-03  0.32854132563E-03  0.00000000000E+00 0.  1.
</event>
<event>
 5   0  0.3490748E+06  0.9118800E+02  0.7546771E-02  0.1180000E+00
      -11   -1    0    0    0    0  0.00000000000E+00  0.00000000000E+00  0.34996269501E-01  0.35000000000E-01  0.51099999109E-03 0.  1.
       11   -1    0    0    0    0 -0.00000000000E+00 -0.00000000000E+00 -0.34996269501E-01  0.35000000000E-01  0.51099999109E-03 0.  1.
       22    1    1    2    0    0  0.40480191434E-02 -0.63738333941E-04 -0.17051253672E-01  0.17525289537E-01  0.00000000000E+00 0. -1.
       22    1    1    2    0    0 -0.13855098146E-03  0.13186608374E-04 -0.17601518680E-01  0.17602068915E-01  0.00000000000E+00 0.  1.
       22    1    1    2    0    0 -0.39094681620E-02  0.50551725567E-04  0.34652772352E-01  0.34872641547E-01  0.00000000000E+00 0.  1.
</event>
<event>
 5   0  0.3490748E+06  0.9118800E+02  0.7546771E-02  0.1180000E+00
      -11   -1    0    0    0    0  0.00000000000E+00  0.00000000000E+00  0.34996269501E-01  0.35000000000E-01  0.51099999109E-03 0.  1.
       11   -1    0    0    0    0 -0.00000000000E+00 -0.00000000000E+00 -0.34996269501E-01  0.35000000000E-01  0.51099999109E-03 0. -1.
       22    1    1    2    0    0 -0.30968273964E-04  0.22341908977E-04 -0.77435868309E-03  0.77529966140E-03  0.00000000000E+00 0. -1.
       22    1    1    2    0    0 -0.10609831673E-01 -0.27426586131E-01 -0.17872126483E-01  0.34412193478E-01  0.00000000000E+00 0.  1.
       22    1    1    2    0    0  0.10640799947E-01  0.27404244222E-01  0.18646485166E-01  0.34812506861E-01  0.00000000000E+00 0. -1.
</event>
<event>
 5   0  0.3490748E+06  0.9118800E+02  0.7546771E-02  0.1180000E+00
      -11   -1    0    0    0    0  0.00000000000E+00  0.00000000000E+00  0.34996269501E-01  0.35000000000E-01  0.51099999109E-03 0. -1.
       11   -1    0    0    0    0 -0.00000000000E+00 -0.00000000000E+00 -0.34996269501E-01  0.35000000000E-01  0.51099999109E-03 0.  1.
       22    1    1    2    0    0  0.17941434105E-05  0.10632859637E-02  0.10442311675E-01  0.10496306655E-01  0.00000000000E+00 0. -1.
       22    1    1    2    0    0  0.19420833118E-01  0.21354026970E-01 -0.38648295122E-02  0.29122158814E-01  0.00000000000E+00 0.  1.
       22    1    1    2    0    0 -0.19422627261E-01 -0.22417312934E-01 -0.65774821633E-02  0.30381534532E-01  0.00000000000E+00 0. -1.
</event>
<event>
 5   0  0.3490748E+06  0.9118800E+02  0.7546771E-02  0.1180000E+00
      -11   -1    0    0    0    0  0.00000000000E+00  0.00000000000E+00  0.34996269501E-01  0.35000000000E-01  0.51099999109E-03 0. -1.
       11   -1    0    0    0    0 -0.00000000000E+00 -0.00000000000E+00 -0.34996269501E-01  0.35000000000E-01  0.51099999109E-03 0.  1.
       22    1    1    2    0    0  0.24044104266E-01  0.18569641495E-01  0.17170063674E-01  0.34896441391E-01  0.00000000000E+00 0. -1.
       22    1    1    2    0    0  0.14662926887E-03 -0.77365184914E-04 -0.12926180903E-03  0.21022399863E-03  0.00000000000E+00 0.  1.
       22    1    1    2    0    0 -0.24190733535E-01 -0.18492276310E-01 -0.17040801865E-01  0.34893334611E-01  0.00000000000E+00 0.  1.
</event>
<event>
 5   0  0.3490748E+06  0.9118800E+02  0.7546771E-02  0.1180000E+00
      -11   -1    0    0    0    0  0.00000000000E+00  0.00000000000E+00  0.34996269501E-01  0.35000000000E-01  0.51099999109E-03 0.  1.
       11   -1    0    0    0    0 -0.00000000000E+00 -0.00000000000E+00 -0.34996269501E-01  0.35000000000E-01  0.51099999109E-03 0.  1.
       22    1    1    2    0    0  0.31093693834E-03 -0.54221974816E-04 -0.34617703581E-01  0.34619142436E-01  0.00000000000E+00 0.  1.
       22    1    1    2    0    0 -0.48391393281E-03  0.12739987347E-02  0.33954255195E-01  0.33981593419E-01  0.00000000000E+00 0.  1.
       22    1    1    2    0    0  0.17297699447E-03 -0.12197767599E-02  0.66344838609E-03  0.13992641443E-02  0.00000000000E+00 0. -1.
</event>
<event>
 5   0  0.3490748E+06  0.9118800E+02  0.7546771E-02  0.1180000E+00
      -11   -1    0    0    0    0  0.00000000000E+00  0.00000000000E+00  0.34996269501E-01  0.35000000000E-01  0.51099999109E-03 0.  1.
       11   -1    0    0    0    0 -0.00000000000E+00 -0.00000000000E+00 -0.34996269501E-01  0.35000000000E-01  0.51099999109E-03 0. -1.
       22    1    1    2    0    0  0.45753513710E-02  0.18421396981E-01 -0.29155298700E-01  0.34789555174E-01  0.00000000000E+00 0. -1.
       22    1    1    2    0    0 -0.81648407886E-04  0.36485393392E-03  0.98629780242E-03  0.10547834899E-02  0.00000000000E+00 0. -1.
       22    1    1    2    0    0 -0.44937029631E-02 -0.18786250915E-01  0.28169000898E-01  0.34155661336E-01  0.00000000000E+00 0.  1.
</event>
<event>
 5   0  0.3490748E+06  0.9118800E+02  0.7546771E-02  0.1180000E+00
      -11   -1    0    0    0    0  0.00000000000E+00  0.00000000000E+00  0.34996269501E-01  0.35000000000E-01  0.51099999109E-03 0. -1.
       11   -1    0    0    0    0 -0.00000000000E+00 -0.00000000000E+00 -0.34996269501E-01  0.35000000000E-01  0.51099999109E-03 0.  1.
       22    1    1    2    0    0  0.90832315415E-02  0.35900109017E-02 -0.33327653643E-01  0.34729321486E-01  0.00000000000E+00 0.  1.
       22    1    1    2    0    0  0.81393464041E-03 -0.44298859473E-03  0.12658159214E-02  0.15687633476E-02  0.00000000000E+00 0. -1.
       22    1    1    2    0    0 -0.98971661819E-02 -0.31470223069E-02  0.32061837722E-01  0.33701915167E-01  0.00000000000E+00 0. -1.
</event>
<event>
 5   0  0.3490748E+06  0.9118800E+02  0.7546771E-02  0.1180000E+00
      -11   -1    0    0    0    0  0.00000000000E+00  0.00000000000E+00  0.34996269501E-01  0.35000000000E-01  0.51099999109E-03 0.  1.
       11   -1    0    0    0    0 -0.00000000000E+00 -0.00000000000E+00 -0.34996269501E-01  0.35000000000E-01  0.51099999109E-03 0.  1.
       22    1    1    2    0    0 -0.19374614195E-05 -0.19515017568E-06  0.19108512019E-05  0.27282215194E-05  0.00000000000E+00 0. -1.
       22    1    1    2    0    0  0.11609036982E-02  0.78862872226E-03  0.34969564768E-01  0.34997715536E-01  0.00000000000E+00 0.  1.
       22    1    1    2    0    0 -0.11589662367E-02 -0.78843357208E-03 -0.34971475619E-01  0.34999556243E-01  0.00000000000E+00 0.  1.
</event>
<event>
 5   0  0.3490748E+06  0.9118800E+02  0.7546771E-02  0.1180000E+00
      -11   -1    0    0    0    0  0.00000000000E+00  0.00000000000E+00  0.34996269501E-01  0.35000000000E-01  0.51099999109E-03 0.  1.
       11   -1    0    0    0    0 -0.00000000000E+00 -0.00000000000E+00 -0.34996269501E-01  0.35000000000E-01  0.51099999109E-03 0. -1.
       22    1    1    2    0    0  0.14537077571E-01  0.22831120583E-02  0.30243380040E-01  0.33633335565E-01  0.00000000000E+00 0.  1.
       22    1    1    2    0    0 -0.31369150435E-02  0.13217484665E-02  0.44346726553E-03  0.34327712150E-02  0.00000000000E+00 0. -1.
       22    1    1    2    0    0 -0.11400162528E-01 -0.36048605249E-02 -0.30686847306E-01  0.32933893220E-01  0.00000000000E+00 0. -1.
</event>
<event>
 5   0  0.3490748E+06  0.9118800E+02  0.7546771E-02  0.1180000E+00
      -11   -1    0    0    0    0  0.00000000000E+00  0.00000000000E+00  0.34996269501E-01  0.35000000000E-01  0.51099999109E-03 0.  1.
       11   -1    0    0    0    0 -0.00000000000E+00 -0.00000000000E+00 -0.34996269501E-01  0.35000000000E-01  0.51099999109E-03 0. -1.
       22    1    1    2    0    0  0.18057965337E-01 -0.24639560944E-01  0.17082161857E-01  0.34999976134E-01  0.00000000000E+00 0.  1.
       22    1    1    2    0    0 -0.18057965222E-01  0.24639559462E-01 -0.17082194653E-01  0.34999991037E-01  0.00000000000E+00 0. -1.
       22    1    1    2    0    0 -0.11511154080E-09  0.14823886298E-08  0.32795665780E-07  0.32829353035E-07  0.00000000000E+00 0.  1.
</event>
<event>
 5   0  0.3490748E+06  0.9118800E+02  0.7546771E-02  0.1180000E+00
      -11   -1    0    0    0    0  0.00000000000E+00  0.00000000000E+00  0.34996269501E-01  0.35000000000E-01  0.51099999109E-03 0.  1.
       11   -1    0    0    0    0 -0.00000000000E+00 -0.00000000000E+00 -0.34996269501E-01  0.35000000000E-01  0.51099999109E-03 0.  1.
       22    1    1    2    0    0  0.78060511745E-03 -0.12454888621E-02  0.34355802914E-01  0.34387232816E-01  0.00000000000E+00 0.  1.
       22    1    1    2    0    0 -0.10863362028E-02  0.29019367389E-03 -0.34569042715E-01  0.34587325033E-01  0.00000000000E+00 0.  1.
       22    1    1    2    0    0  0.30573108533E-03  0.95529518824E-03  0.21323980112E-03  0.10254421515E-02  0.00000000000E+00 0. -1.
</event>
<event>
 5   0  0.3490748E+06  0.9118800E+02  0.7546771E-02  0.1180000E+00
      -11   -1    0    0    0    0  0.00000000000E+00  0.00000000000E+00  0.34996269501E-01  0.35000000000E-01  0.51099999109E-03 0.  1.
       11   -1    0    0    0    0 -0.00000000000E+00 -0.00000000000E+00 -0.34996269501E-01  0.35000000000E-01  0.51099999109E-03 0. -1.
       22    1    1    2    0    0 -0.13952597129E-01  0.23868332889E-02 -0.26101689618E-01  0.29692930821E-01  0.00000000000E+00 0. -1.
       22    1    1    2    0    0  0.14247961786E-01  0.80432498741E-02  0.24913020909E-01  0.29805316546E-01  0.00000000000E+00 0.  1.
       22    1    1    2    0    0 -0.29536465670E-03 -0.10430083163E-01  0.11886687088E-02  0.10501752633E-01  0.00000000000E+00 0. -1.
</event>
<event>
 5   0  0.3490748E+06  0.9118800E+02  0.7546771E-02  0.1180000E+00
      -11   -1    0    0    0    0  0.00000000000E+00  0.00000000000E+00  0.34996269501E-01  0.35000000000E-01  0.51099999109E-03 0. -1.
       11   -1    0    0    0    0 -0.00000000000E+00 -0.00000000000E+00 -0.34996269501E-01  0.35000000000E-01  0.51099999109E-03 0. -1.
       22    1    1    2    0    0  0.12114939007E-11 -0.25384456077E-09 -0.35001762461E-01  0.34999939469E-01  0.00000000000E+00 0. -1.
       22    1    1    2    0    0 -0.15252003443E-07  0.31957553502E-05  0.34960339483E-01  0.34958514477E-01  0.00000000000E+00 0. -1.
       22    1    1    2    0    0  0.15250791949E-07 -0.31955015056E-05  0.41422978014E-04  0.41546053603E-04  0.00000000000E+00 0.  1.
</event>
<event>
 5   0  0.3490748E+06  0.9118800E+02  0.7546771E-02  0.1180000E+00
      -11   -1    0    0    0    0  0.00000000000E+00  0.00000000000E+00  0.34996269501E-01  0.35000000000E-01  0.51099999109E-03 0. -1.
       11   -1    0    0    0    0 -0.00000000000E+00 -0.00000000000E+00 -0.34996269501E-01  0.35000000000E-01  0.51099999109E-03 0.  1.
       22    1    1    2    0    0 -0.73569430875E-03 -0.40964344273E-02 -0.34196567547E-01  0.34448907866E-01  0.00000000000E+00 0.  1.
       22    1    1    2    0    0  0.10689172253E-02  0.13919019452E-02  0.32007912805E-01  0.32055989412E-01  0.00000000000E+00 0. -1.
       22    1    1    2    0    0 -0.33322291659E-03  0.27045324821E-02  0.21886547419E-02  0.34951027221E-02  0.00000000000E+00 0. -1.
</event>
<event>
 5   0  0.3490748E+06  0.9118800E+02  0.7546771E-02  0.1180000E+00
      -11   -1    0    0    0    0  0.00000000000E+00  0.00000000000E+00  0.34996269501E-01  0.35000000000E-01  0.51099999109E-03 0.  1.
       11   -1    0    0    0    0 -0.00000000000E+00 -0.00000000000E+00 -0.34996269501E-01  0.35000000000E-01  0.51099999109E-03 0. -1.
       22    1    1    2    0    0  0.30262023853E-03  0.15297297418E-02  0.33559251576E-01  0.33595461277E-01  0.00000000000E+00 0.  1.
       22    1    1    2    0    0 -0.21503397817E-02 -0.50315470826E-02 -0.45217940103E-02  0.70983834986E-02  0.00000000000E+00 0.  1.
       22    1    1    2    0    0  0.18477195431E-02  0.35018173408E-02 -0.29037457565E-01  0.29306155225E-01  0.00000000000E+00 0. -1.
</event>
<event>
 5   0  0.3490748E+06  0.9118800E+02  0.7546771E-02  0.1180000E+00
      -11   -1    0    0    0    0  0.00000000000E+00  0.00000000000E+00  0.34996269501E-01  0.35000000000E-01  0.51099999109E-03 0. -1.
       11   -1    0    0    0    0 -0.00000000000E+00 -0.00000000000E+00 -0.34996269501E-01  0.35000000000E-01  0.51099999109E-03 0.  1.
       22    1    1    2    0    0 -0.36361103340E-02  0.34683442073E-02 -0.34637397104E-01  0.34999999829E-01  0.00000000000E+00 0.  1.
       22    1    1    2    0    0  0.48439181942E-09  0.12348350754E-08  0.36687825898E-08  0.39012073502E-08  0.00000000000E+00 0. -1.
       22    1    1    2    0    0  0.36361098496E-02 -0.34683454421E-02  0.34637393435E-01  0.34999996270E-01  0.00000000000E+00 0. -1.
</event>
<event>
 5   0  0.3490748E+06  0.9118800E+02  0.7546771E-02  0.1180000E+00
      -11   -1    0    0    0    0  0.00000000000E+00  0.00000000000E+00  0.34996269501E-01  0.35000000000E-01  0.51099999109E-03 0.  1.
       11   -1    0    0    0    0 -0.00000000000E+00 -0.00000000000E+00 -0.34996269501E-01  0.35000000000E-01  0.51099999109E-03 0. -1.
       22    1    1    2    0    0 -0.77546527547E-02 -0.10816216786E-02 -0.16544008215E-02  0.80025987579E-02  0.00000000000E+00 0.  1.
       22    1    1    2    0    0  0.76292789780E-02  0.50026817835E-03 -0.29684267895E-01  0.30653089998E-01  0.00000000000E+00 0. -1.
       22    1    1    2    0    0  0.12537377664E-03  0.58135350020E-03  0.31338668716E-01  0.31344311244E-01  0.00000000000E+00 0.  1.
</event>
<event>
 5   0  0.3490748E+06  0.9118800E+02  0.7546771E-02  0.1180000E+00
      -11   -1    0    0    0    0  0.00000000000E+00  0.00000000000E+00  0.34996269501E-01  0.35000000000E-01  0.51099999109E-03 0. -1.
       11   -1    0    0    0    0 -0.00000000000E+00 -0.00000000000E+00 -0.34996269501E-01  0.35000000000E-01  0.51099999109E-03 0.  1.
       22    1    1    2    0    0 -0.14028409190E-08 -0.17968189277E-08  0.41805589599E-07  0.41867694499E-07  0.00000000000E+00 0.  1.
       22    1    1    2    0    0 -0.90200123945E-02 -0.25728159531E-01  0.21947636359E-01  0.34999965117E-01  0.00000000000E+00 0. -1.
       22    1    1    2    0    0  0.90200137974E-02  0.25728161328E-01 -0.21947678164E-01  0.34999993015E-01  0.00000000000E+00 0.  1.
</event>
<event>
 5   0  0.3490748E+06  0.9118800E+02  0.7546771E-02  0.1180000E+00
      -11   -1    0    0    0    0  0.00000000000E+00  0.00000000000E+00  0.34996269501E-01  0.35000000000E-01  0.51099999109E-03 0.  1.
       11   -1    0    0    0    0 -0.00000000000E+00 -0.00000000000E+00 -0.34996269501E-01  0.35000000000E-01  0.51099999109E-03 0.  1.
       22    1    1    2    0    0  0.34776845233E-06 -0.53838168127E-06  0.34991767506E-01  0.34988161853E-01  0.00000000000E+00 0.  1.
       22    1    1    2    0    0 -0.34773199908E-06  0.53832524785E-06  0.11828866595E-04  0.11846214440E-04  0.00000000000E+00 0. -1.
       22    1    1    2    0    0 -0.36453249623E-10  0.56433416223E-10 -0.35003596372E-01  0.34999991932E-01  0.00000000000E+00 0.  1.
</event>
<event>
 5   0  0.3490748E+06  0.9118800E+02  0.7546771E-02  0.1180000E+00
      -11   -1    0    0    0    0  0.00000000000E+00  0.00000000000E+00  0.34996269501E-01  0.35000000000E-01  0.51099999109E-03 0.  1.
       11   -1    0    0    0    0 -0.00000000000E+00 -0.00000000000E+00 -0.34996269501E-01  0.35000000000E-01  0.51099999109E-03 0.  1.
       22    1    1    2    0    0  0.77985874062E-03  0.14323616820E-02 -0.34934026699E-01  0.34972075447E-01  0.00000000000E+00 0.  1.
       22    1    1    2    0    0 -0.56677129458E-03 -0.15602550203E-02  0.14871894341E-01  0.14964252962E-01  0.00000000000E+00 0. -1.
       22    1    1    2    0    0 -0.21308744603E-03  0.12789333830E-03  0.20062132358E-01  0.20063671591E-01  0.00000000000E+00 0.  1.
</event>
<event>
 5   0  0.3490748E+06  0.9118800E+02  0.7546771E-02  0.1180000E+00
      -11   -1    0    0    0    0  0.00000000000E+00  0.00000000000E+00  0.34996269501E-01  0.35000000000E-01  0.51099999109E-03 0. -1.
       11   -1    0    0    0    0 -0.00000000000E+00 -0.00000000000E+00 -0.34996269501E-01  0.35000000000E-01  0.51099999109E-03 0.  1.
       22    1    1    2    0    0 -0.95254602006E-04  0.97477396973E-04 -0.22721675828E-03  0.26495799171E-03  0.00000000000E+00 0. -1.
       22    1    1    2    0    0 -0.88667526266E-03  0.17613243328E-02  0.34921498788E-01  0.34977128727E-01  0.00000000000E+00 0. -1.
       22    1    1    2    0    0  0.98192986467E-03 -0.18588017298E-02 -0.34694282029E-01  0.34757913281E-01  0.00000000000E+00 0.  1.
</event>
<event>
 5   0  0.3490748E+06  0.9118800E+02  0.7546771E-02  0.1180000E+00
      -11   -1    0    0    0    0  0.00000000000E+00  0.00000000000E+00  0.34996269501E-01  0.35000000000E-01  0.51099999109E-03 0.  1.
       11   -1    0    0    0    0 -0.00000000000E+00 -0.00000000000E+00 -0.34996269501E-01  0.35000000000E-01  0.51099999109E-03 0.  1.
       22    1    1    2    0    0 -0.51751738695E-03  0.47681724288E-03  0.34989218712E-01  0.34996294161E-01  0.00000000000E+00 0.  1.
       22    1    1    2    0    0  0.46645153089E-07  0.24638940202E-08  0.37063948036E-05  0.37066891266E-05  0.00000000000E+00 0.  1.
       22    1    1    2    0    0  0.51747074180E-03 -0.47681970678E-03 -0.34992925107E-01  0.34999999150E-01  0.00000000000E+00 0.  1.
</event>
<event>
 5   0  0.3490748E+06  0.9118800E+02  0.7546771E-02  0.1180000E+00
      -11   -1    0    0    0    0  0.00000000000E+00  0.00000000000E+00  0.34996269501E-01  0.35000000000E-01  0.51099999109E-03 0.  1.
       11   -1    0    0    0    0 -0.00000000000E+00 -0.00000000000E+00 -0.34996269501E-01  0.35000000000E-01  0.51099999109E-03 0. -1.
       22    1    1    2    0    0  0.10304915152E-07 -0.22305554543E-07  0.21678879604E-06  0.21817678870E-06  0.00000000000E+00 0.  1.
       22    1    1    2    0    0  0.20610188782E-01  0.23880862933E-01 -0.15163128807E-01  0.34999942447E-01  0.00000000000E+00 0. -1.
       22    1    1    2    0    0 -0.20610199087E-01 -0.23880840627E-01  0.15162912018E-01  0.34999839376E-01  0.00000000000E+00 0.  1.
</event>
<event>
 5   0  0.3490748E+06  0.9118800E+02  0.7546771E-02  0.1180000E+00
      -11   -1    0    0    0    0  0.00000000000E+00  0.00000000000E+00  0.34996269501E-01  0.35000000000E-01  0.51099999109E-03 0.  1.
       11   -1    0    0    0    0 -0.00000000000E+00 -0.00000000000E+00 -0.34996269501E-01  0.35000000000E-01  0.51099999109E-03 0.  1.
       22    1    1    2    0    0  0.11786412271E-04 -0.53715331478E-04 -0.34999954664E-01  0.34999997867E-01  0.00000000000E+00 0.  1.
       22    1    1    2    0    0 -0.11779676979E-04  0.53720935459E-04  0.34999947781E-01  0.34999990991E-01  0.00000000000E+00 0.  1.
       22    1    1    2    0    0 -0.67352923833E-08 -0.56039803536E-08  0.68823371945E-08  0.11141603320E-07  0.00000000000E+00 0. -1.
</event>
<event>
 5   0  0.3490748E+06  0.9118800E+02  0.7546771E-02  0.1180000E+00
      -11   -1    0    0    0    0  0.00000000000E+00  0.00000000000E+00  0.34996269501E-01  0.35000000000E-01  0.51099999109E-03 0. -1.
       11   -1    0    0    0    0 -0.00000000000E+00 -0.00000000000E+00 -0.34996269501E-01  0.35000000000E-01  0.51099999109E-03 0.  1.
       22    1    1    2    0    0 -0.75813454067E-02 -0.58577043205E-02 -0.33608820471E-01  0.34947708244E-01  0.00000000000E+00 0.  1.
       22    1    1    2    0    0  0.76076775813E-02  0.58063173074E-02  0.31018366764E-01  0.32461194611E-01  0.00000000000E+00 0. -1.
       22    1    1    2    0    0 -0.26332174543E-04  0.51387013161E-04  0.25904537066E-02  0.25910971449E-02  0.00000000000E+00 0.  1.
</event>
<event>
 5   0  0.3490748E+06  0.9118800E+02  0.7546771E-02  0.1180000E+00
      -11   -1    0    0    0    0  0.00000000000E+00  0.00000000000E+00  0.34996269501E-01  0.35000000000E-01  0.51099999109E-03 0.  1.
       11   -1    0    0    0    0 -0.00000000000E+00 -0.00000000000E+00 -0.34996269501E-01  0.35000000000E-01  0.51099999109E-03 0. -1.
       22    1    1    2    0    0  0.58458692329E-02  0.11786194077E-02 -0.34155034479E-01  0.34671742256E-01  0.00000000000E+00 0. -1.
       22    1    1    2    0    0 -0.52184610130E-02 -0.12386747854E-02  0.34270355863E-01  0.34687518527E-01  0.00000000000E+00 0.  1.
       22    1    1    2    0    0 -0.62740821994E-03  0.60055377734E-04 -0.11532138341E-03  0.64073921708E-03  0.00000000000E+00 0.  1.
</event>
<event>
 5   0  0.3490748E+06  0.9118800E+02  0.7546771E-02  0.1180000E+00
      -11   -1    0    0    0    0  0.00000000000E+00  0.00000000000E+00  0.34996269501E-01  0.35000000000E-01  0.51099999109E-03 0. -1.
       11   -1    0    0    0    0 -0.00000000000E+00 -0.00000000000E+00 -0.34996269501E-01  0.35000000000E-01  0.51099999109E-03 0.  1.
       22    1    1    2    0    0  0.74486004777E-03 -0.58351713460E-03  0.34986170260E-01  0.34998963102E-01  0.00000000000E+00 0. -1.
       22    1    1    2    0    0 -0.74369776658E-03  0.58375026581E-03 -0.34986882303E-01  0.34999654056E-01  0.00000000000E+00 0.  1.
       22    1    1    2    0    0 -0.11622811873E-05 -0.23313121121E-06  0.71204295422E-06  0.13828423224E-05  0.00000000000E+00 0.  1.
</event>
<event>
 5   0  0.3490748E+06  0.9118800E+02  0.7546771E-02  0.1180000E+00
      -11   -1    0    0    0    0  0.00000000000E+00  0.00000000000E+00  0.34996269501E-01  0.35000000000E-01  0.51099999109E-03 0.  1.
       11   -1    0    0    0    0 -0.00000000000E+00 -0.00000000000E+00 -0.34996269501E-01  0.35000000000E-01  0.51099999109E-03 0. -1.
       22    1    1    2    0    0 -0.51655833363E-02  0.23269469313E-02  0.34538396884E-01  0.34999982751E-01  0.00000000000E+00 0.  1.
       22    1    1    2    0    0  0.51655867804E-02 -0.23269436884E-02 -0.34538413773E-01  0.34999999710E-01  0.00000000000E+00 0. -1.
       22    1    1    2    0    0 -0.34441773060E-08 -0.32429375604E-08  0.16889347032E-07  0.17539357015E-07  0.00000000000E+00 0. -1.
</event>
<event>
 5   0  0.3490748E+06  0.9118800E+02  0.7546771E-02  0.1180000E+00
      -11   -1    0    0    0    0  0.00000000000E+00  0.00000000000E+00  0.34996269501E-01  0.35000000000E-01  0.51099999109E-03 0. -1.
       11   -1    0    0    0    0 -0.00000000000E+00 -0.00000000000E+00 -0.34996269501E-01  0.35000000000E-01  0.51099999109E-03 0.  1.
       22    1    1    2    0    0 -0.15302780047E-02  0.16279492690E-02  0.34928230311E-01  0.34999617745E-01  0.00000000000E+00 0. -1.
       22    1    1    2    0    0 -0.24903807979E-07 -0.52253950155E-07  0.38112928519E-06  0.38549994421E-06  0.00000000000E+00 0. -1.
       22    1    1    2    0    0  0.15303029085E-02 -0.16278970150E-02 -0.34928611441E-01  0.34999996755E-01  0.00000000000E+00 0.  1.
</event>
<event>
 5   0  0.3490748E+06  0.9118800E+02  0.7546771E-02  0.1180000E+00
      -11   -1    0    0    0    0  0.00000000000E+00  0.00000000000E+00  0.34996269501E-01  0.35000000000E-01  0.51099999109E-03 0. -1.
       11   -1    0    0    0    0 -0.00000000000E+00 -0.00000000000E+00 -0.34996269501E-01  0.35000000000E-01  0.51099999109E-03 0.  1.
       22    1    1    2    0    0 -0.92736938355E-03 -0.55505388070E-04 -0.34986608545E-01  0.34998941017E-01  0.00000000000E+00 0.  1.
       22    1    1    2    0    0  0.92371833324E-03  0.44558290161E-04  0.34957726540E-01  0.34969956904E-01  0.00000000000E+00 0. -1.
       22    1    1    2    0    0  0.36510503092E-05  0.10947097909E-04  0.28882004781E-04  0.31102079049E-04  0.00000000000E+00 0. -1.
</event>
<event>
 5   0  0.3490748E+06  0.9118800E+02  0.7546771E-02  0.1180000E+00
      -11   -1    0    0    0    0  0.00000000000E+00  0.00000000000E+00  0.34996269501E-01  0.35000000000E-01  0.51099999109E-03 0.  1.
       11   -1    0    0    0    0 -0.00000000000E+00 -0.00000000000E+00 -0.34996269501E-01  0.35000000000E-01  0.51099999109E-03 0. -1.
       22    1    1    2    0    0  0.65923683208E-03  0.30991412695E-03  0.21473910784E-02  0.22675820626E-02  0.00000000000E+00 0.  1.
       22    1    1    2    0    0  0.30579393684E-02 -0.77170729265E-02 -0.33907526995E-01  0.34908803971E-01  0.00000000000E+00 0. -1.
       22    1    1    2    0    0 -0.37171762005E-02  0.74071587996E-02  0.31760135917E-01  0.32823613967E-01  0.00000000000E+00 0.  1.
</event>
<event>
 5   0  0.3490748E+06  0.9118800E+02  0.7546771E-02  0.1180000E+00
      -11   -1    0    0    0    0  0.00000000000E+00  0.00000000000E+00  0.34996269501E-01  0.35000000000E-01  0.51099999109E-03 0.  1.
       11   -1    0    0    0    0 -0.00000000000E+00 -0.00000000000E+00 -0.34996269501E-01  0.35000000000E-01  0.51099999109E-03 0. -1.
       22    1    1    2    0    0  0.25274243572E-01 -0.17657188310E-01 -0.16566106755E-01  0.34999994002E-01  0.00000000000E+00 0. -1.
       22    1    1    2    0    0 -0.25274230253E-01  0.17657188670E-01  0.16566070573E-01  0.34999967441E-01  0.00000000000E+00 0.  1.
       22    1    1    2    0    0 -0.13318107690E-07 -0.35954977241E-09  0.36181839887E-07  0.38556799739E-07  0.00000000000E+00 0.  1.
</event>
<event>
 5   0  0.3490748E+06  0.9118800E+02  0.7546771E-02  0.1180000E+00
      -11   -1    0    0    0    0  0.00000000000E+00  0.00000000000E+00  0.34996269501E-01  0.35000000000E-01  0.51099999109E-03 0.  1.
       11   -1    0    0    0    0 -0.00000000000E+00 -0.00000000000E+00 -0.34996269501E-01  0.35000000000E-01  0.51099999109E-03 0. -1.
       22    1    1    2    0    0 -0.54218762070E-03 -0.18979826059E-02 -0.34944292747E-01  0.34999998586E-01  0.00000000000E+00 0. -1.
       22    1    1    2    0    0  0.54219485530E-03  0.18979857889E-02  0.34944281645E-01  0.34999987786E-01  0.00000000000E+00 0.  1.
       22    1    1    2    0    0 -0.72345934117E-08 -0.31829581881E-08  0.11102660175E-07  0.13628632639E-07  0.00000000000E+00 0. -1.
</event>
<event>
 5   0  0.3490748E+06  0.9118800E+02  0.7546771E-02  0.1180000E+00
      -11   -1    0    0    0    0  0.00000000000E+00  0.00000000000E+00  0.34996269501E-01  0.35000000000E-01  0.51099999109E-03 0. -1.
       11   -1    0    0    0    0 -0.00000000000E+00 -0.00000000000E+00 -0.34996269501E-01  0.35000000000E-01  0.51099999109E-03 0.  1.
       22    1    1    2    0    0 -0.79124129498E-07  0.20519150633E-06  0.13046717453E-05  0.13230769233E-05  0.00000000000E+00 0. -1.
       22    1    1    2    0    0  0.34135345669E-02  0.11363697915E-02 -0.34814588843E-01  0.34999987869E-01  0.00000000000E+00 0.  1.
       22    1    1    2    0    0 -0.34134554428E-02 -0.11365749830E-02  0.34813284171E-01  0.34998689054E-01  0.00000000000E+00 0. -1.
</event>
<event>
 5   0  0.3490748E+06  0.9118800E+02  0.7546771E-02  0.1180000E+00
      -11   -1    0    0    0    0  0.00000000000E+00  0.00000000000E+00  0.34996269501E-01  0.35000000000E-01  0.51099999109E-03 0. -1.
       11   -1    0    0    0    0 -0.00000000000E+00 -0.00000000000E+00 -0.34996269501E-01  0.35000000000E-01  0.51099999109E-03 0.  1.
       22    1    1    2    0    0 -0.17593661737E-01 -0.10957376599E-01  0.28202684414E-01  0.34999892048E-01  0.00000000000E+00 0. -1.
       22    1    1    2    0    0 -0.10956483201E-07  0.18967187678E-08  0.11654710973E-06  0.11707634626E-06  0.00000000000E+00 0.  1.
       22    1    1    2    0    0  0.17593672694E-01  0.10957374702E-01 -0.28202800961E-01  0.34999990875E-01  0.00000000000E+00 0.  1.
</event>
<event>
 5   0  0.3490748E+06  0.9118800E+02  0.7546771E-02  0.1180000E+00
      -11   -1    0    0    0    0  0.00000000000E+00  0.00000000000E+00  0.34996269501E-01  0.35000000000E-01  0.51099999109E-03 0.  1.
       11   -1    0    0    0    0 -0.00000000000E+00 -0.00000000000E+00 -0.34996269501E-01  0.35000000000E-01  0.51099999109E-03 0. -1.
       22    1    1    2    0    0  0.15093595279E-02  0.31436657123E-02  0.34817172952E-01  0.34991375118E-01  0.00000000000E+00 0.  1.
       22    1    1    2    0    0 -0.15083783658E-02 -0.31441263166E-02 -0.34825785762E-01  0.34999944137E-01  0.00000000000E+00 0. -1.
       22    1    1    2    0    0 -0.98116202689E-06  0.46060427498E-06  0.86128103680E-05  0.86807452247E-05  0.00000000000E+00 0.  1.
</event>
<event>
 5   0  0.3490748E+06  0.9118800E+02  0.7546771E-02  0.1180000E+00
      -11   -1    0    0    0    0  0.00000000000E+00  0.00000000000E+00  0.34996269501E-01  0.35000000000E-01  0.51099999109E-03 0.  1.
       11   -1    0    0    0    0 -0.00000000000E+00 -0.00000000000E+00 -0.34996269501E-01  0.35000000000E-01  0.51099999109E-03 0. -1.
       22    1    1    2    0    0  0.93798357412E-04 -0.35662977906E-02 -0.20251504119E-01  0.20563333805E-01  0.00000000000E+00 0. -1.
       22    1    1    2    0    0  0.64407502130E-03  0.25204130872E-03 -0.14501602806E-01  0.14518086698E-01  0.00000000000E+00 0.  1.
       22    1    1    2    0    0 -0.73787337871E-03  0.33142564819E-02  0.34753106925E-01  0.34918579497E-01  0.00000000000E+00 0.  1.
</event>
<event>
 5   0  0.3490748E+06  0.9118800E+02  0.7546771E-02  0.1180000E+00
      -11   -1    0    0    0    0  0.00000000000E+00  0.00000000000E+00  0.34996269501E-01  0.35000000000E-01  0.51099999109E-03 0.  1.
       11   -1    0    0    0    0 -0.00000000000E+00 -0.00000000000E+00 -0.34996269501E-01  0.35000000000E-01  0.51099999109E-03 0. -1.
       22    1    1    2    0    0 -0.54631220977E-02 -0.18996211752E-01 -0.28884219630E-01  0.34999998680E-01  0.00000000000E+00 0. -1.
       22    1    1    2    0    0 -0.21374137332E-08  0.17351116844E-08  0.17340960585E-07  0.17558133843E-07  0.00000000000E+00 0.  1.
       22    1    1    2    0    0  0.54631242351E-02  0.18996210017E-01  0.28884202289E-01  0.34999983761E-01  0.00000000000E+00 0.  1.
</event>
<event>
 5   0  0.3490748E+06  0.9118800E+02  0.7546771E-02  0.1180000E+00
      -11   -1    0    0    0    0  0.00000000000E+00  0.00000000000E+00  0.34996269501E-01  0.35000000000E-01  0.51099999109E-03 0.  1.
       11   -1    0    0    0    0 -0.00000000000E+00 -0.00000000000E+00 -0.34996269501E-01  0.35000000000E-01  0.51099999109E-03 0. -1.
       22    1    1    2    0    0 -0.30110128118E-04  0.33499918506E-03  0.10924029174E-03  0.35364461701E-03  0.00000000000E+00 0. -1.
       22    1    1    2    0    0  0.24381455165E-01 -0.84956200647E-02  0.23387725834E-01  0.34837000960E-01  0.00000000000E+00 0.  1.
       22    1    1    2    0    0 -0.24351345037E-01  0.81606208796E-02 -0.23496966125E-01  0.34809354423E-01  0.00000000000E+00 0. -1.
</event>
<event>
 5   0  0.3490748E+06  0.9118800E+02  0.7546771E-02  0.1180000E+00
      -11   -1    0    0    0    0  0.00000000000E+00  0.00000000000E+00  0.34996269501E-01  0.35000000000E-01  0.51099999109E-03 0.  1.
       11   -1    0    0    0    0 -0.00000000000E+00 -0.00000000000E+00 -0.34996269501E-01  0.35000000000E-01  0.51099999109E-03 0. -1.
       22    1    1    2    0    0 -0.34596073778E-04 -0.43279596219E-03  0.20764642170E-04  0.43467275458E-03  0.00000000000E+00 0. -1.
       22    1    1    2    0    0 -0.20318639425E-01 -0.15915568647E-01 -0.23162196071E-01  0.34679096878E-01  0.00000000000E+00 0. -1.
       22    1    1    2    0    0  0.20353235499E-01  0.16348364609E-01  0.23141431429E-01  0.34886230367E-01  0.00000000000E+00 0.  1.
</event>
<event>
 5   0  0.3490748E+06  0.9118800E+02  0.7546771E-02  0.1180000E+00
      -11   -1    0    0    0    0  0.00000000000E+00  0.00000000000E+00  0.34996269501E-01  0.35000000000E-01  0.51099999109E-03 0.  1.
       11   -1    0    0    0    0 -0.00000000000E+00 -0.00000000000E+00 -0.34996269501E-01  0.35000000000E-01  0.51099999109E-03 0. -1.
       22    1    1    2    0    0  0.20600826726E-03  0.15087823355E-03  0.25734941400E-02  0.25861314228E-02  0.00000000000E+00 0. -1.
       22    1    1    2    0    0 -0.86781104657E-03 -0.77696145900E-03 -0.34977584692E-01  0.34996974098E-01  0.00000000000E+00 0. -1.
       22    1    1    2    0    0  0.66180277930E-03  0.62608322545E-03  0.32404090552E-01  0.32416894479E-01  0.00000000000E+00 0.  1.
</event>
<event>
 5   0  0.3490748E+06  0.9118800E+02  0.7546771E-02  0.1180000E+00
      -11   -1    0    0    0    0  0.00000000000E+00  0.00000000000E+00  0.34996269501E-01  0.35000000000E-01  0.51099999109E-03 0.  1.
       11   -1    0    0    0    0 -0.00000000000E+00 -0.00000000000E+00 -0.34996269501E-01  0.35000000000E-01  0.51099999109E-03 0. -1.
       22    1    1    2    0    0 -0.33615242113E-08  0.44653114062E-08  0.67205863561E-07  0.67437874729E-07  0.00000000000E+00 0. -1.
       22    1    1    2    0    0  0.18329850263E-02 -0.28521616397E-02 -0.34835403537E-01  0.34999999996E-01  0.00000000000E+00 0. -1.
       22    1    1    2    0    0 -0.18329816648E-02  0.28521571744E-02  0.34835336331E-01  0.34999932566E-01  0.00000000000E+00 0.  1.
</event>
<event>
 5   0  0.3490748E+06  0.9118800E+02  0.7546771E-02  0.1180000E+00
      -11   -1    0    0    0    0  0.00000000000E+00  0.00000000000E+00  0.34996269501E-01  0.35000000000E-01  0.51099999109E-03 0. -1.
       11   -1    0    0    0    0 -0.00000000000E+00 -0.00000000000E+00 -0.34996269501E-01  0.35000000000E-01  0.51099999109E-03 0.  1.
       22    1    1    2    0    0 -0.20261570184E-02  0.62623492075E-02  0.34143288057E-01  0.34771920413E-01  0.00000000000E+00 0. -1.
       22    1    1    2    0    0  0.22456400318E-02 -0.59030198865E-03 -0.46958047569E-02  0.52385053122E-02  0.00000000000E+00 0.  1.
       22    1    1    2    0    0 -0.21948301339E-03 -0.56720472189E-02 -0.29447483300E-01  0.29989574275E-01  0.00000000000E+00 0.  1.
</event>
<event>
 5   0  0.3490748E+06  0.9118800E+02  0.7546771E-02  0.1180000E+00
      -11   -1    0    0    0    0  0.00000000000E+00  0.00000000000E+00  0.34996269501E-01  0.35000000000E-01  0.51099999109E-03 0. -1.
       11   -1    0    0    0    0 -0.00000000000E+00 -0.00000000000E+00 -0.34996269501E-01  0.35000000000E-01  0.51099999109E-03 0.  1.
       22    1    1    2    0    0 -0.13901223921E-01  0.18608397863E-01  0.12148290602E-01  0.26212543983E-01  0.00000000000E+00 0. -1.
       22    1    1    2    0    0  0.10910441483E-01  0.76592327632E-03  0.95678961954E-02  0.14531655426E-01  0.00000000000E+00 0. -1.
       22    1    1    2    0    0  0.29907824387E-02 -0.19374321139E-01 -0.21716186797E-01  0.29255800591E-01  0.00000000000E+00 0.  1.
</event>
<event>
 5   0  0.3490748E+06  0.9118800E+02  0.7546771E-02  0.1180000E+00
      -11   -1    0    0    0    0  0.00000000000E+00  0.00000000000E+00  0.34996269501E-01  0.35000000000E-01  0.51099999109E-03 0.  1.
       11   -1    0    0    0    0 -0.00000000000E+00 -0.00000000000E+00 -0.34996269501E-01  0.35000000000E-01  0.51099999109E-03 0.  1.
       22    1    1    2    0    0  0.34989575266E-03 -0.76982078882E-03 -0.34989686941E-01  0.34999903476E-01  0.00000000000E+00 0.  1.
       22    1    1    2    0    0 -0.96526066965E-06  0.14635638695E-07  0.22014586909E-05  0.24038225247E-05  0.00000000000E+00 0. -1.
       22    1    1    2    0    0 -0.34893049199E-03  0.76980615318E-03  0.34987485483E-01  0.34997692701E-01  0.00000000000E+00 0.  1.
</event>
<event>
 5   0  0.3490748E+06  0.9118800E+02  0.7546771E-02  0.1180000E+00
      -11   -1    0    0    0    0  0.00000000000E+00  0.00000000000E+00  0.34996269501E-01  0.35000000000E-01  0.51099999109E-03 0.  1.
       11   -1    0    0    0    0 -0.00000000000E+00 -0.00000000000E+00 -0.34996269501E-01  0.35000000000E-01  0.51099999109E-03 0. -1.
       22    1    1    2    0    0  0.28732900354E-06 -0.53657190934E-05 -0.41792784847E-04  0.42136805344E-04  0.00000000000E+00 0. -1.
       22    1    1    2    0    0  0.14077557340E-01  0.31905688871E-01 -0.27253290562E-02  0.34979680123E-01  0.00000000000E+00 0.  1.
       22    1    1    2    0    0 -0.14077844669E-01 -0.31900323152E-01  0.27671218410E-02  0.34978183072E-01  0.00000000000E+00 0. -1.
</event>
<event>
 5   0  0.3490748E+06  0.9118800E+02  0.7546771E-02  0.1180000E+00
      -11   -1    0    0    0    0  0.00000000000E+00  0.00000000000E+00  0.34996269501E-01  0.35000000000E-01  0.51099999109E-03 0. -1.
       11   -1    0    0    0    0 -0.00000000000E+00 -0.00000000000E+00 -0.34996269501E-01  0.35000000000E-01  0.51099999109E-03 0.  1.
       22    1    1    2    0    0 -0.94653869965E-02 -0.54978347041E-02 -0.33244251208E-01  0.34999999655E-01  0.00000000000E+00 0.  1.
       22    1    1    2    0    0  0.15200115137E-08  0.11488147580E-08  0.24060102331E-07  0.24135424888E-07  0.00000000000E+00 0. -1.
       22    1    1    2    0    0  0.94653854765E-02  0.54978335553E-02  0.33244227148E-01  0.34999976210E-01  0.00000000000E+00 0. -1.
</event>
<event>
 5   0  0.3490748E+06  0.9118800E+02  0.7546771E-02  0.1180000E+00
      -11   -1    0    0    0    0  0.00000000000E+00  0.00000000000E+00  0.34996269501E-01  0.35000000000E-01  0.51099999109E-03 0. -1.
       11   -1    0    0    0    0 -0.00000000000E+00 -0.00000000000E+00 -0.34996269501E-01  0.35000000000E-01  0.51099999109E-03 0.  1.
       22    1    1    2    0    0  0.78845596168E-02 -0.64917510857E-02 -0.33467998205E-01  0.34991656382E-01  0.00000000000E+00 0.  1.
       22    1    1    2    0    0 -0.78691127743E-02  0.64908647138E-02  0.33472426183E-01  0.34992250216E-01  0.00000000000E+00 0. -1.
       22    1    1    2    0    0 -0.15446842577E-04  0.88637197861E-06 -0.44279781012E-05  0.16093402094E-04  0.00000000000E+00 0. -1.
</event>
<event>
 5   0  0.3490748E+06  0.9118800E+02  0.7546771E-02  0.1180000E+00
      -11   -1    0    0    0    0  0.00000000000E+00  0.00000000000E+00  0.34996269501E-01  0.35000000000E-01  0.51099999109E-03 0.  1.
       11   -1    0    0    0    0 -0.00000000000E+00 -0.00000000000E+00 -0.34996269501E-01  0.35000000000E-01  0.51099999109E-03 0.  1.
       22    1    1    2    0    0 -0.64309920654E-09 -0.10197513356E-09 -0.35000346532E-01  0.34999393432E-01  0.00000000000E+00 0.  1.
       22    1    1    2    0    0  0.96006694969E-05  0.15223616267E-05  0.34962003635E-01  0.34961050841E-01  0.00000000000E+00 0.  1.
       22    1    1    2    0    0 -0.96000263977E-05 -0.15222596516E-05  0.38342897151E-04  0.39555727060E-04  0.00000000000E+00 0.  1.
</event>
<event>
 5   0  0.3490748E+06  0.9118800E+02  0.7546771E-02  0.1180000E+00
      -11   -1    0    0    0    0  0.00000000000E+00  0.00000000000E+00  0.34996269501E-01  0.35000000000E-01  0.51099999109E-03 0. -1.
       11   -1    0    0    0    0 -0.00000000000E+00 -0.00000000000E+00 -0.34996269501E-01  0.35000000000E-01  0.51099999109E-03 0.  1.
       22    1    1    2    0    0 -0.21194804380E-08 -0.91725188862E-09  0.62446918313E-08  0.66580571056E-08  0.00000000000E+00 0.  1.
       22    1    1    2    0    0  0.11719961268E-01 -0.12188909152E-01  0.30644291325E-01  0.34999994132E-01  0.00000000000E+00 0. -1.
       22    1    1    2    0    0 -0.11719959149E-01  0.12188910069E-01 -0.30644297570E-01  0.34999999210E-01  0.00000000000E+00 0.  1.
</event>
<event>
 5   0  0.3490748E+06  0.9118800E+02  0.7546771E-02  0.1180000E+00
      -11   -1    0    0    0    0  0.00000000000E+00  0.00000000000E+00  0.34996269501E-01  0.35000000000E-01  0.51099999109E-03 0. -1.
       11   -1    0    0    0    0 -0.00000000000E+00 -0.00000000000E+00 -0.34996269501E-01  0.35000000000E-01  0.51099999109E-03 0.  1.
       22    1    1    2    0    0  0.70595501756E-02 -0.39754874013E-02  0.34032898306E-01  0.34983995139E-01  0.00000000000E+00 0. -1.
       22    1    1    2    0    0 -0.14205633857E-03 -0.83645358130E-04 -0.14996775602E-02  0.15087111499E-02  0.00000000000E+00 0.  1.
       22    1    1    2    0    0 -0.69174938370E-02  0.40591327594E-02 -0.32533220746E-01  0.33507293711E-01  0.00000000000E+00 0.  1.
</event>
<event>
 5   0  0.3490748E+06  0.9118800E+02  0.7546771E-02  0.1180000E+00
      -11   -1    0    0    0    0  0.00000000000E+00  0.00000000000E+00  0.34996269501E-01  0.35000000000E-01  0.51099999109E-03 0.  1.
       11   -1    0    0    0    0 -0.00000000000E+00 -0.00000000000E+00 -0.34996269501E-01  0.35000000000E-01  0.51099999109E-03 0. -1.
       22    1    1    2    0    0  0.27835636939E-02  0.30678902654E-03 -0.34862727788E-01  0.34975021590E-01  0.00000000000E+00 0. -1.
       22    1    1    2    0    0 -0.28143143230E-02 -0.27032694695E-03  0.34862827005E-01  0.34977280462E-01  0.00000000000E+00 0.  1.
       22    1    1    2    0    0  0.30750629113E-04 -0.36462079591E-04 -0.99216132076E-07  0.47697948413E-04  0.00000000000E+00 0.  1.
</event>
<event>
 5   0  0.3490748E+06  0.9118800E+02  0.7546771E-02  0.1180000E+00
      -11   -1    0    0    0    0  0.00000000000E+00  0.00000000000E+00  0.34996269501E-01  0.35000000000E-01  0.51099999109E-03 0.  1.
       11   -1    0    0    0    0 -0.00000000000E+00 -0.00000000000E+00 -0.34996269501E-01  0.35000000000E-01  0.51099999109E-03 0.  1.
       22    1    1    2    0    0  0.87887666944E-03 -0.55934861428E-04  0.34938097265E-01  0.34949194461E-01  0.00000000000E+00 0.  1.
       22    1    1    2    0    0  0.82301006314E-04 -0.11495560317E-03 -0.51372487257E-04  0.15042399671E-03  0.00000000000E+00 0.  1.
       22    1    1    2    0    0 -0.96117767575E-03  0.17089046460E-03 -0.34886724778E-01  0.34900381543E-01  0.00000000000E+00 0.  1.
</event>
<event>
 5   0  0.3490748E+06  0.9118800E+02  0.7546771E-02  0.1180000E+00
      -11   -1    0    0    0    0  0.00000000000E+00  0.00000000000E+00  0.34996269501E-01  0.35000000000E-01  0.51099999109E-03 0.  1.
       11   -1    0    0    0    0 -0.00000000000E+00 -0.00000000000E+00 -0.34996269501E-01  0.35000000000E-01  0.51099999109E-03 0. -1.
       22    1    1    2    0    0  0.45090180991E-03  0.24369676131E-03  0.34922445374E-01  0.34926206371E-01  0.00000000000E+00 0.  1.
       22    1    1    2    0    0 -0.45159472550E-03 -0.39250435055E-03 -0.34919835936E-01  0.34924961550E-01  0.00000000000E+00 0. -1.
       22    1    1    2    0    0  0.69291559598E-06  0.14880758924E-03 -0.26094378856E-05  0.14883207959E-03  0.00000000000E+00 0. -1.
</event>
<event>
 5   0  0.3490748E+06  0.9118800E+02  0.7546771E-02  0.1180000E+00
      -11   -1    0    0    0    0  0.00000000000E+00  0.00000000000E+00  0.34996269501E-01  0.35000000000E-01  0.51099999109E-03 0. -1.
       11   -1    0    0    0    0 -0.00000000000E+00 -0.00000000000E+00 -0.34996269501E-01  0.35000000000E-01  0.51099999109E-03 0.  1.
       22    1    1    2    0    0 -0.97196605730E-07  0.18059130488E-06  0.87749871269E-06  0.90114615370E-06  0.00000000000E+00 0. -1.
       22    1    1    2    0    0  0.11164770643E-01 -0.68591077216E-02  0.32453703076E-01  0.34999175785E-01  0.00000000000E+00 0. -1.
       22    1    1    2    0    0 -0.11164673447E-01  0.68589271303E-02 -0.32454580575E-01  0.34999923069E-01  0.00000000000E+00 0.  1.
</event>
<event>
 5   0  0.3490748E+06  0.9118800E+02  0.7546771E-02  0.1180000E+00
      -11   -1    0    0    0    0  0.00000000000E+00  0.00000000000E+00  0.34996269501E-01  0.35000000000E-01  0.51099999109E-03 0. -1.
       11   -1    0    0    0    0 -0.00000000000E+00 -0.00000000000E+00 -0.34996269501E-01  0.35000000000E-01  0.51099999109E-03 0.  1.
       22    1    1    2    0    0  0.27704638415E-01  0.16901195895E-01 -0.13107347722E-01  0.34999999667E-01  0.00000000000E+00 0. -1.
       22    1    1    2    0    0 -0.75540707508E-10 -0.66771327851E-09  0.14368927865E-08  0.15862560640E-08  0.00000000000E+00 0. -1.
       22    1    1    2    0    0 -0.27704638339E-01 -0.16901195228E-01  0.13107346285E-01  0.34999998747E-01  0.00000000000E+00 0.  1.
</event>
<event>
 5   0  0.3490748E+06  0.9118800E+02  0.7546771E-02  0.1180000E+00
      -11   -1    0    0    0    0  0.00000000000E+00  0.00000000000E+00  0.34996269501E-01  0.35000000000E-01  0.51099999109E-03 0. -1.
       11   -1    0    0    0    0 -0.00000000000E+00 -0.00000000000E+00 -0.34996269501E-01  0.35000000000E-01  0.51099999109E-03 0.  1.
       22    1    1    2    0    0  0.13064076549E-02  0.27994684240E-03 -0.75739311689E-02  0.76908715076E-02  0.00000000000E+00 0. -1.
       22    1    1    2    0    0 -0.70399807309E-03  0.12345526440E-02  0.34902788340E-01  0.34931710056E-01  0.00000000000E+00 0. -1.
       22    1    1    2    0    0 -0.60240958176E-03 -0.15144994864E-02 -0.27328857171E-01  0.27377418437E-01  0.00000000000E+00 0.  1.
</event>
<event>
 5   0  0.3490748E+06  0.9118800E+02  0.7546771E-02  0.1180000E+00
      -11   -1    0    0    0    0  0.00000000000E+00  0.00000000000E+00  0.34996269501E-01  0.35000000000E-01  0.51099999109E-03 0.  1.
       11   -1    0    0    0    0 -0.00000000000E+00 -0.00000000000E+00 -0.34996269501E-01  0.35000000000E-01  0.51099999109E-03 0. -1.
       22    1    1    2    0    0  0.68434481459E-06  0.23159167427E-07  0.30194998942E-06  0.74835684563E-06  0.00000000000E+00 0. -1.
       22    1    1    2    0    0 -0.59363251924E-03 -0.22943681313E-02  0.34919152313E-01  0.34999481752E-01  0.00000000000E+00 0.  1.
       22    1    1    2    0    0  0.59294817442E-03  0.22943449721E-02 -0.34919454263E-01  0.34999769891E-01  0.00000000000E+00 0. -1.
</event>
<event>
 5   0  0.3490748E+06  0.9118800E+02  0.7546771E-02  0.1180000E+00
      -11   -1    0    0    0    0  0.00000000000E+00  0.00000000000E+00  0.34996269501E-01  0.35000000000E-01  0.51099999109E-03 0. -1.
       11   -1    0    0    0    0 -0.00000000000E+00 -0.00000000000E+00 -0.34996269501E-01  0.35000000000E-01  0.51099999109E-03 0.  1.
       22    1    1    2    0    0 -0.13480478132E-02  0.72547470522E-03  0.34441404100E-01  0.34475409538E-01  0.00000000000E+00 0. -1.
       22    1    1    2    0    0  0.12001827448E-02 -0.74634136533E-03 -0.34958146228E-01  0.34986703928E-01  0.00000000000E+00 0.  1.
       22    1    1    2    0    0  0.14786506839E-03  0.20866660109E-04  0.51674212824E-03  0.53788653362E-03  0.00000000000E+00 0. -1.
</event>
<event>
 5   0  0.3490748E+06  0.9118800E+02  0.7546771E-02  0.1180000E+00
      -11   -1    0    0    0    0  0.00000000000E+00  0.00000000000E+00  0.34996269501E-01  0.35000000000E-01  0.51099999109E-03 0. -1.
       11   -1    0    0    0    0 -0.00000000000E+00 -0.00000000000E+00 -0.34996269501E-01  0.35000000000E-01  0.51099999109E-03 0.  1.
       22    1    1    2    0    0 -0.15674708919E-01  0.81016166855E-02  0.21088952400E-01  0.27496847201E-01  0.00000000000E+00 0. -1.
       22    1    1    2    0    0  0.15291165163E-01  0.48622377141E-02  0.18497077201E-02  0.16151857673E-01  0.00000000000E+00 0. -1.
       22    1    1    2    0    0  0.38354375610E-03 -0.12963854400E-01 -0.22938660121E-01  0.26351295126E-01  0.00000000000E+00 0.  1.
</event>
<event>
 5   0  0.3490748E+06  0.9118800E+02  0.7546771E-02  0.1180000E+00
      -11   -1    0    0    0    0  0.00000000000E+00  0.00000000000E+00  0.34996269501E-01  0.35000000000E-01  0.51099999109E-03 0. -1.
       11   -1    0    0    0    0 -0.00000000000E+00 -0.00000000000E+00 -0.34996269501E-01  0.35000000000E-01  0.51099999109E-03 0.  1.
       22    1    1    2    0    0  0.73604347660E-06  0.13307441634E-04 -0.33722223045E-03  0.33748549965E-03  0.00000000000E+00 0. -1.
       22    1    1    2    0    0  0.30809557758E-01 -0.30120761473E-02  0.16134510053E-01  0.34908793543E-01  0.00000000000E+00 0.  1.
       22    1    1    2    0    0 -0.30810293801E-01  0.29987687057E-02 -0.15797287823E-01  0.34753720958E-01  0.00000000000E+00 0. -1.
</event>
<event>
 5   0  0.3490748E+06  0.9118800E+02  0.7546771E-02  0.1180000E+00
      -11   -1    0    0    0    0  0.00000000000E+00  0.00000000000E+00  0.34996269501E-01  0.35000000000E-01  0.51099999109E-03 0.  1.
       11   -1    0    0    0    0 -0.00000000000E+00 -0.00000000000E+00 -0.34996269501E-01  0.35000000000E-01  0.51099999109E-03 0.  1.
       22    1    1    2    0    0 -0.00000000000E+00  0.00000000000E+00  0.14982194022E-01  0.14980915654E-01  0.00000000000E+00 0.  1.
       22    1    1    2    0    0  0.21703601619E-04 -0.94674376238E-03 -0.34983028381E-01  0.34995843603E-01  0.00000000000E+00 0.  1.
       22    1    1    2    0    0 -0.21703601619E-04  0.94674376238E-03  0.20000834359E-01  0.20023240743E-01  0.00000000000E+00 0. -1.
</event>
<event>
 5   0  0.3490748E+06  0.9118800E+02  0.7546771E-02  0.1180000E+00
      -11   -1    0    0    0    0  0.00000000000E+00  0.00000000000E+00  0.34996269501E-01  0.35000000000E-01  0.51099999109E-03 0. -1.
       11   -1    0    0    0    0 -0.00000000000E+00 -0.00000000000E+00 -0.34996269501E-01  0.35000000000E-01  0.51099999109E-03 0.  1.
       22    1    1    2    0    0 -0.21635937390E-02  0.28462970976E-03  0.34931852220E-01  0.34999949306E-01  0.00000000000E+00 0. -1.
       22    1    1    2    0    0  0.11111195723E-08 -0.16518612709E-08  0.50764900730E-07  0.50803920897E-07  0.00000000000E+00 0.  1.
       22    1    1    2    0    0  0.21635926279E-02 -0.28462805790E-03 -0.34931902984E-01  0.34999999890E-01  0.00000000000E+00 0.  1.
</event>
<event>
 5   0  0.3490748E+06  0.9118800E+02  0.7546771E-02  0.1180000E+00
      -11   -1    0    0    0    0  0.00000000000E+00  0.00000000000E+00  0.34996269501E-01  0.35000000000E-01  0.51099999109E-03 0.  1.
       11   -1    0    0    0    0 -0.00000000000E+00 -0.00000000000E+00 -0.34996269501E-01  0.35000000000E-01  0.51099999109E-03 0. -1.
       22    1    1    2    0    0 -0.38640008199E-03  0.58563276792E-04 -0.18602456535E-02  0.19008546952E-02  0.00000000000E+00 0.  1.
       22    1    1    2    0    0  0.28061191108E-02  0.20246674997E-01 -0.26292757482E-01  0.33303321890E-01  0.00000000000E+00 0. -1.
       22    1    1    2    0    0 -0.24197190288E-02 -0.20305238274E-01  0.28153003136E-01  0.34795823415E-01  0.00000000000E+00 0.  1.
</event>
<event>
 5   0  0.3490748E+06  0.9118800E+02  0.7546771E-02  0.1180000E+00
      -11   -1    0    0    0    0  0.00000000000E+00  0.00000000000E+00  0.34996269501E-01  0.35000000000E-01  0.51099999109E-03 0.  1.
       11   -1    0    0    0    0 -0.00000000000E+00 -0.00000000000E+00 -0.34996269501E-01  0.35000000000E-01  0.51099999109E-03 0. -1.
       22    1    1    2    0    0 -0.63751946385E-02 -0.19788395086E-01 -0.28156283279E-01  0.34999999641E-01  0.00000000000E+00 0. -1.
       22    1    1    2    0    0  0.67502165144E-09 -0.48608604632E-09  0.20766079122E-08  0.22370145944E-08  0.00000000000E+00 0.  1.
       22    1    1    2    0    0  0.63751939635E-02  0.19788395572E-01  0.28156281203E-01  0.34999998122E-01  0.00000000000E+00 0.  1.
</event>
<event>
 5   0  0.3490748E+06  0.9118800E+02  0.7546771E-02  0.1180000E+00
      -11   -1    0    0    0    0  0.00000000000E+00  0.00000000000E+00  0.34996269501E-01  0.35000000000E-01  0.51099999109E-03 0.  1.
       11   -1    0    0    0    0 -0.00000000000E+00 -0.00000000000E+00 -0.34996269501E-01  0.35000000000E-01  0.51099999109E-03 0. -1.
       22    1    1    2    0    0  0.14185832620E-02  0.16665881908E-02 -0.32959605753E-01  0.33032188938E-01  0.00000000000E+00 0. -1.
       22    1    1    2    0    0 -0.26725712423E-03  0.10481700506E-03 -0.19617314458E-02  0.19826253404E-02  0.00000000000E+00 0. -1.
       22    1    1    2    0    0 -0.11513261377E-02 -0.17714051959E-02  0.34921337198E-01  0.34985185722E-01  0.00000000000E+00 0.  1.
</event>
<event>
 5   0  0.3490748E+06  0.9118800E+02  0.7546771E-02  0.1180000E+00
      -11   -1    0    0    0    0  0.00000000000E+00  0.00000000000E+00  0.34996269501E-01  0.35000000000E-01  0.51099999109E-03 0. -1.
       11   -1    0    0    0    0 -0.00000000000E+00 -0.00000000000E+00 -0.34996269501E-01  0.35000000000E-01  0.51099999109E-03 0.  1.
       22    1    1    2    0    0 -0.61412701871E-02  0.12339853279E-01 -0.32171542330E-01  0.34999933062E-01  0.00000000000E+00 0.  1.
       22    1    1    2    0    0 -0.23664008370E-06 -0.28503050231E-07  0.87077949998E-06  0.90281110465E-06  0.00000000000E+00 0. -1.
       22    1    1    2    0    0  0.61415068272E-02 -0.12339824776E-01  0.32170671550E-01  0.34999164127E-01  0.00000000000E+00 0. -1.
</event>
<event>
 5   0  0.3490748E+06  0.9118800E+02  0.7546771E-02  0.1180000E+00
      -11   -1    0    0    0    0  0.00000000000E+00  0.00000000000E+00  0.34996269501E-01  0.35000000000E-01  0.51099999109E-03 0. -1.
       11   -1    0    0    0    0 -0.00000000000E+00 -0.00000000000E+00 -0.34996269501E-01  0.35000000000E-01  0.51099999109E-03 0.  1.
       22    1    1    2    0    0  0.92459667826E-08  0.28986846314E-07  0.92625801694E-07  0.97494944999E-07  0.00000000000E+00 0. -1.
       22    1    1    2    0    0  0.75261056389E-03 -0.58341783856E-03 -0.34987041019E-01  0.34999997690E-01  0.00000000000E+00 0.  1.
       22    1    1    2    0    0 -0.75261980986E-03  0.58338885171E-03  0.34986948394E-01  0.34999904815E-01  0.00000000000E+00 0. -1.
</event>
<event>
 5   0  0.3490748E+06  0.9118800E+02  0.7546771E-02  0.1180000E+00
      -11   -1    0    0    0    0  0.00000000000E+00  0.00000000000E+00  0.34996269501E-01  0.35000000000E-01  0.51099999109E-03 0. -1.
       11   -1    0    0    0    0 -0.00000000000E+00 -0.00000000000E+00 -0.34996269501E-01  0.35000000000E-01  0.51099999109E-03 0.  1.
       22    1    1    2    0    0 -0.34122875657E-06  0.12900834549E-06  0.68937127607E-05  0.69033583019E-05  0.00000000000E+00 0.  1.
       22    1    1    2    0    0  0.10524006971E-01 -0.84268830222E-02  0.32292001587E-01  0.34993434337E-01  0.00000000000E+00 0. -1.
       22    1    1    2    0    0 -0.10523665742E-01  0.84267540138E-02 -0.32298895300E-01  0.34999662305E-01  0.00000000000E+00 0.  1.
</event>
<event>
 5   0  0.3490748E+06  0.9118800E+02  0.7546771E-02  0.1180000E+00
      -11   -1    0    0    0    0  0.00000000000E+00  0.00000000000E+00  0.34996269501E-01  0.35000000000E-01  0.51099999109E-03 0.  1.
       11   -1    0    0    0    0 -0.00000000000E+00 -0.00000000000E+00 -0.34996269501E-01  0.35000000000E-01  0.51099999109E-03 0. -1.
       22    1    1    2    0    0  0.13096075754E-01  0.20680629942E-01 -0.24996724192E-01  0.34986166913E-01  0.00000000000E+00 0. -1.
       22    1    1    2    0    0  0.30709530971E-04 -0.11769056120E-04  0.29475411622E-04  0.44163173172E-04  0.00000000000E+00 0. -1.
       22    1    1    2    0    0 -0.13126785284E-01 -0.20668860886E-01  0.24967248781E-01  0.34969669914E-01  0.00000000000E+00 0.  1.
</event>
<event>
 5   0  0.3490748E+06  0.9118800E+02  0.7546771E-02  0.1180000E+00
      -11   -1    0    0    0    0  0.00000000000E+00  0.00000000000E+00  0.34996269501E-01  0.35000000000E-01  0.51099999109E-03 0. -1.
       11   -1    0    0    0    0 -0.00000000000E+00 -0.00000000000E+00 -0.34996269501E-01  0.35000000000E-01  0.51099999109E-03 0.  1.
       22    1    1    2    0    0  0.32044190152E-02  0.49912952669E-02 -0.20966521522E-02  0.62910476007E-02  0.00000000000E+00 0.  1.
       22    1    1    2    0    0 -0.95181979076E-02 -0.73341779283E-02  0.31411048537E-01  0.33630941520E-01  0.00000000000E+00 0. -1.
       22    1    1    2    0    0  0.63137788924E-02  0.23428826613E-02 -0.29314396385E-01  0.30078010880E-01  0.00000000000E+00 0.  1.
</event>
<event>
 5   0  0.3490748E+06  0.9118800E+02  0.7546771E-02  0.1180000E+00
      -11   -1    0    0    0    0  0.00000000000E+00  0.00000000000E+00  0.34996269501E-01  0.35000000000E-01  0.51099999109E-03 0.  1.
       11   -1    0    0    0    0 -0.00000000000E+00 -0.00000000000E+00 -0.34996269501E-01  0.35000000000E-01  0.51099999109E-03 0.  1.
       22    1    1    2    0    0 -0.10945084078E-02 -0.71053584818E-03  0.28917292182E-01  0.28946719969E-01  0.00000000000E+00 0.  1.
       22    1    1    2    0    0 -0.11029682305E-03  0.57615590034E-04  0.60539353586E-02  0.60552141392E-02  0.00000000000E+00 0.  1.
       22    1    1    2    0    0  0.12048052308E-02  0.65292025815E-03 -0.34971227540E-01  0.34998065892E-01  0.00000000000E+00 0.  1.
</event>
<event>
 5   0  0.3490748E+06  0.9118800E+02  0.7546771E-02  0.1180000E+00
      -11   -1    0    0    0    0  0.00000000000E+00  0.00000000000E+00  0.34996269501E-01  0.35000000000E-01  0.51099999109E-03 0. -1.
       11   -1    0    0    0    0 -0.00000000000E+00 -0.00000000000E+00 -0.34996269501E-01  0.35000000000E-01  0.51099999109E-03 0.  1.
       22    1    1    2    0    0 -0.23741208176E-02  0.72034083511E-02 -0.34168235035E-01  0.34999911813E-01  0.00000000000E+00 0.  1.
       22    1    1    2    0    0  0.23749564204E-02 -0.72026581962E-02  0.34165222567E-01  0.34996873234E-01  0.00000000000E+00 0. -1.
       22    1    1    2    0    0 -0.83560280420E-06 -0.75015489000E-06  0.30124673599E-05  0.32149531878E-05  0.00000000000E+00 0.  1.
</event>
<event>
 5   0  0.3490748E+06  0.9118800E+02  0.7546771E-02  0.1180000E+00
      -11   -1    0    0    0    0  0.00000000000E+00  0.00000000000E+00  0.34996269501E-01  0.35000000000E-01  0.51099999109E-03 0.  1.
       11   -1    0    0    0    0 -0.00000000000E+00 -0.00000000000E+00 -0.34996269501E-01  0.35000000000E-01  0.51099999109E-03 0. -1.
       22    1    1    2    0    0  0.89032244793E-02 -0.68776958685E-02 -0.33066770507E-01  0.34928232397E-01  0.00000000000E+00 0. -1.
       22    1    1    2    0    0 -0.90253066409E-02  0.67616008894E-02  0.33026174245E-01  0.34898475495E-01  0.00000000000E+00 0.  1.
       22    1    1    2    0    0  0.12208216163E-03  0.11609497911E-03  0.40596261995E-04  0.17329210845E-03  0.00000000000E+00 0. -1.
</event>
<event>
 5   0  0.3490748E+06  0.9118800E+02  0.7546771E-02  0.1180000E+00
      -11   -1    0    0    0    0  0.00000000000E+00  0.00000000000E+00  0.34996269501E-01  0.35000000000E-01  0.51099999109E-03 0. -1.
       11   -1    0    0    0    0 -0.00000000000E+00 -0.00000000000E+00 -0.34996269501E-01  0.35000000000E-01  0.51099999109E-03 0.  1.
       22    1    1    2    0    0  0.60247284524E-02  0.11728201889E-01  0.32421464825E-01  0.34999992198E-01  0.00000000000E+00 0. -1.
       22    1    1    2    0    0  0.51001530467E-08 -0.24558563365E-07 -0.24225595118E-08  0.25199273605E-07  0.00000000000E+00 0. -1.
       22    1    1    2    0    0 -0.60247335526E-02 -0.11728177330E-01 -0.32421462402E-01  0.34999982603E-01  0.00000000000E+00 0.  1.
</event>
<event>
 5   0  0.3490748E+06  0.9118800E+02  0.7546771E-02  0.1180000E+00
      -11   -1    0    0    0    0  0.00000000000E+00  0.00000000000E+00  0.34996269501E-01  0.35000000000E-01  0.51099999109E-03 0.  1.
       11   -1    0    0    0    0 -0.00000000000E+00 -0.00000000000E+00 -0.34996269501E-01  0.35000000000E-01  0.51099999109E-03 0. -1.
       22    1    1    2    0    0 -0.47903127116E-03  0.37049119644E-04 -0.22548201052E-02  0.23054408045E-02  0.00000000000E+00 0. -1.
       22    1    1    2    0    0  0.15474443580E-02 -0.33820344168E-01  0.93676996055E-03  0.33868684676E-01  0.00000000000E+00 0.  1.
       22    1    1    2    0    0 -0.10684130868E-02  0.33783295048E-01  0.13180501447E-02  0.33825874520E-01  0.00000000000E+00 0. -1.
</event>
<event>
 5   0  0.3490748E+06  0.9118800E+02  0.7546771E-02  0.1180000E+00
      -11   -1    0    0    0    0  0.00000000000E+00  0.00000000000E+00  0.34996269501E-01  0.35000000000E-01  0.51099999109E-03 0.  1.
       11   -1    0    0    0    0 -0.00000000000E+00 -0.00000000000E+00 -0.34996269501E-01  0.35000000000E-01  0.51099999109E-03 0. -1.
       22    1    1    2    0    0  0.13354653633E-01 -0.31705265900E-02 -0.18322750051E-01  0.22893714901E-01  0.00000000000E+00 0. -1.
       22    1    1    2    0    0 -0.37599293522E-02  0.90999916879E-02 -0.11548742339E-01  0.15176309402E-01  0.00000000000E+00 0. -1.
       22    1    1    2    0    0 -0.95947242803E-02 -0.59294650979E-02  0.29871492391E-01  0.31929975697E-01  0.00000000000E+00 0.  1.
</event>
<event>
 5   0  0.3490748E+06  0.9118800E+02  0.7546771E-02  0.1180000E+00
      -11   -1    0    0    0    0  0.00000000000E+00  0.00000000000E+00  0.34996269501E-01  0.35000000000E-01  0.51099999109E-03 0.  1.
       11   -1    0    0    0    0 -0.00000000000E+00 -0.00000000000E+00 -0.34996269501E-01  0.35000000000E-01  0.51099999109E-03 0. -1.
       22    1    1    2    0    0  0.18038332563E-02 -0.77838128288E-03 -0.92622991933E-02  0.94683619589E-02  0.00000000000E+00 0.  1.
       22    1    1    2    0    0 -0.30080585827E-03 -0.57559209140E-02  0.34213323701E-01  0.34695426621E-01  0.00000000000E+00 0.  1.
       22    1    1    2    0    0 -0.15030273980E-02  0.65343021968E-02 -0.24951024508E-01  0.25836211420E-01  0.00000000000E+00 0. -1.
</event>
<event>
 5   0  0.3490748E+06  0.9118800E+02  0.7546771E-02  0.1180000E+00
      -11   -1    0    0    0    0  0.00000000000E+00  0.00000000000E+00  0.34996269501E-01  0.35000000000E-01  0.51099999109E-03 0.  1.
       11   -1    0    0    0    0 -0.00000000000E+00 -0.00000000000E+00 -0.34996269501E-01  0.35000000000E-01  0.51099999109E-03 0. -1.
       22    1    1    2    0    0  0.38847708047E-02  0.74684711825E-02 -0.33972469792E-01  0.34999974425E-01  0.00000000000E+00 0. -1.
       22    1    1    2    0    0 -0.11700828105E-08  0.36838927470E-08  0.17197395005E-05  0.17197438442E-05  0.00000000000E+00 0.  1.
       22    1    1    2    0    0 -0.38847696346E-02 -0.74684748664E-02  0.33970750052E-01  0.34998305831E-01  0.00000000000E+00 0.  1.
</event>
<event>
 5   0  0.3490748E+06  0.9118800E+02  0.7546771E-02  0.1180000E+00
      -11   -1    0    0    0    0  0.00000000000E+00  0.00000000000E+00  0.34996269501E-01  0.35000000000E-01  0.51099999109E-03 0. -1.
       11   -1    0    0    0    0 -0.00000000000E+00 -0.00000000000E+00 -0.34996269501E-01  0.35000000000E-01  0.51099999109E-03 0.  1.
       22    1    1    2    0    0  0.47430639210E-02  0.19542009415E-02 -0.30581843342E-01  0.31009106709E-01  0.00000000000E+00 0.  1.
       22    1    1    2    0    0 -0.42533897868E-02 -0.16308108573E-02  0.34615917392E-01  0.34914361022E-01  0.00000000000E+00 0. -1.
       22    1    1    2    0    0 -0.48967413411E-03 -0.32339008421E-03 -0.40340740492E-02  0.40765322688E-02  0.00000000000E+00 0. -1.
</event>
<event>
 5   0  0.3490748E+06  0.9118800E+02  0.7546771E-02  0.1180000E+00
      -11   -1    0    0    0    0  0.00000000000E+00  0.00000000000E+00  0.34996269501E-01  0.35000000000E-01  0.51099999109E-03 0.  1.
       11   -1    0    0    0    0 -0.00000000000E+00 -0.00000000000E+00 -0.34996269501E-01  0.35000000000E-01  0.51099999109E-03 0. -1.
       22    1    1    2    0    0 -0.22862857378E-01  0.25581176892E-01  0.69204761619E-02  0.34999997842E-01  0.00000000000E+00 0. -1.
       22    1    1    2    0    0 -0.21214804173E-08 -0.40447702647E-09  0.18682319367E-08  0.28556210174E-08  0.00000000000E+00 0.  1.
       22    1    1    2    0    0  0.22862859500E-01 -0.25581176487E-01 -0.69204780302E-02  0.34999999302E-01  0.00000000000E+00 0.  1.
</event>
<event>
 5   0  0.3490748E+06  0.9118800E+02  0.7546771E-02  0.1180000E+00
      -11   -1    0    0    0    0  0.00000000000E+00  0.00000000000E+00  0.34996269501E-01  0.35000000000E-01  0.51099999109E-03 0.  1.
       11   -1    0    0    0    0 -0.00000000000E+00 -0.00000000000E+00 -0.34996269501E-01  0.35000000000E-01  0.51099999109E-03 0. -1.
       22    1    1    2    0    0 -0.14152022201E-03 -0.22899780523E-03 -0.32561126281E-01  0.32562239061E-01  0.00000000000E+00 0. -1.
       22    1    1    2    0    0 -0.00000000000E+00  0.00000000000E+00  0.34992285028E-01  0.34991743601E-01  0.00000000000E+00 0.  1.
       22    1    1    2    0    0  0.14152022201E-03  0.22899780523E-03 -0.24311587471E-02  0.24460173388E-02  0.00000000000E+00 0.  1.
</event>
<event>
 5   0  0.3490748E+06  0.9118800E+02  0.7546771E-02  0.1180000E+00
      -11   -1    0    0    0    0  0.00000000000E+00  0.00000000000E+00  0.34996269501E-01  0.35000000000E-01  0.51099999109E-03 0. -1.
       11   -1    0    0    0    0 -0.00000000000E+00 -0.00000000000E+00 -0.34996269501E-01  0.35000000000E-01  0.51099999109E-03 0.  1.
       22    1    1    2    0    0  0.72987923806E-02 -0.83191543248E-02 -0.33204124854E-01  0.34999922946E-01  0.00000000000E+00 0.  1.
       22    1    1    2    0    0  0.80720553858E-07  0.95989071220E-08 -0.47736586129E-07  0.94269446207E-07  0.00000000000E+00 0.  1.
       22    1    1    2    0    0 -0.72988731011E-02  0.83191447259E-02  0.33204172591E-01  0.34999982785E-01  0.00000000000E+00 0. -1.
</event>
<event>
 5   0  0.3490748E+06  0.9118800E+02  0.7546771E-02  0.1180000E+00
      -11   -1    0    0    0    0  0.00000000000E+00  0.00000000000E+00  0.34996269501E-01  0.35000000000E-01  0.51099999109E-03 0. -1.
       11   -1    0    0    0    0 -0.00000000000E+00 -0.00000000000E+00 -0.34996269501E-01  0.35000000000E-01  0.51099999109E-03 0.  1.
       22    1    1    2    0    0  0.31798405346E-02  0.19708981341E-02  0.34785779231E-01  0.34986372518E-01  0.00000000000E+00 0. -1.
       22    1    1    2    0    0 -0.32573502253E-02 -0.19473853815E-02 -0.34636488075E-01  0.34843779165E-01  0.00000000000E+00 0.  1.
       22    1    1    2    0    0  0.77509690732E-04 -0.23512752580E-04 -0.14929115568E-03  0.16984831720E-03  0.00000000000E+00 0. -1.
</event>
<event>
 5   0  0.3490748E+06  0.9118800E+02  0.7546771E-02  0.1180000E+00
      -11   -1    0    0    0    0  0.00000000000E+00  0.00000000000E+00  0.34996269501E-01  0.35000000000E-01  0.51099999109E-03 0. -1.
       11   -1    0    0    0    0 -0.00000000000E+00 -0.00000000000E+00 -0.34996269501E-01  0.35000000000E-01  0.51099999109E-03 0.  1.
       22    1    1    2    0    0  0.14610418609E-01  0.14410330705E-01 -0.28352742022E-01  0.34999999187E-01  0.00000000000E+00 0.  1.
       22    1    1    2    0    0 -0.25245799874E-08  0.19093207848E-08  0.33686751090E-08  0.46224432892E-08  0.00000000000E+00 0. -1.
       22    1    1    2    0    0 -0.14610416084E-01 -0.14410332614E-01  0.28352738653E-01  0.34999996190E-01  0.00000000000E+00 0. -1.
</event>
<event>
 5   0  0.3490748E+06  0.9118800E+02  0.7546771E-02  0.1180000E+00
      -11   -1    0    0    0    0  0.00000000000E+00  0.00000000000E+00  0.34996269501E-01  0.35000000000E-01  0.51099999109E-03 0. -1.
       11   -1    0    0    0    0 -0.00000000000E+00 -0.00000000000E+00 -0.34996269501E-01  0.35000000000E-01  0.51099999109E-03 0.  1.
       22    1    1    2    0    0 -0.38030294593E-07 -0.24317997344E-07  0.23754115276E-06  0.24179219912E-06  0.00000000000E+00 0. -1.
       22    1    1    2    0    0  0.12043217564E-01 -0.72887028472E-02  0.32044031079E-01  0.34999774374E-01  0.00000000000E+00 0. -1.
       22    1    1    2    0    0 -0.12043179534E-01  0.72887271652E-02 -0.32044268620E-01  0.34999983833E-01  0.00000000000E+00 0.  1.
</event>
<event>
 5   0  0.3490748E+06  0.9118800E+02  0.7546771E-02  0.1180000E+00
      -11   -1    0    0    0    0  0.00000000000E+00  0.00000000000E+00  0.34996269501E-01  0.35000000000E-01  0.51099999109E-03 0.  1.
       11   -1    0    0    0    0 -0.00000000000E+00 -0.00000000000E+00 -0.34996269501E-01  0.35000000000E-01  0.51099999109E-03 0. -1.
       22    1    1    2    0    0 -0.23318247182E-01  0.25227446661E-01 -0.12786402132E-02  0.34377312831E-01  0.00000000000E+00 0. -1.
       22    1    1    2    0    0  0.22709399085E-01 -0.23968288490E-01  0.32804542459E-02  0.33180672688E-01  0.00000000000E+00 0.  1.
       22    1    1    2    0    0  0.60884809717E-03 -0.12591581712E-02 -0.20018140327E-02  0.24420144813E-02  0.00000000000E+00 0. -1.
</event>
<event>
 5   0  0.3490748E+06  0.9118800E+02  0.7546771E-02  0.1180000E+00
      -11   -1    0    0    0    0  0.00000000000E+00  0.00000000000E+00  0.34996269501E-01  0.35000000000E-01  0.51099999109E-03 0.  1.
       11   -1    0    0    0    0 -0.00000000000E+00 -0.00000000000E+00 -0.34996269501E-01  0.35000000000E-01  0.51099999109E-03 0. -1.
       22    1    1    2    0    0 -0.47120446132E-05  0.31908323888E-04  0.17686312027E-03  0.17978016522E-03  0.00000000000E+00 0. -1.
       22    1    1    2    0    0 -0.32617998380E-01  0.86691051561E-02 -0.89873183198E-02  0.34926481258E-01  0.00000000000E+00 0. -1.
       22    1    1    2    0    0  0.32622710424E-01 -0.87010134800E-02  0.88104551995E-02  0.34893738576E-01  0.00000000000E+00 0.  1.
</event>
<event>
 5   0  0.3490748E+06  0.9118800E+02  0.7546771E-02  0.1180000E+00
      -11   -1    0    0    0    0  0.00000000000E+00  0.00000000000E+00  0.34996269501E-01  0.35000000000E-01  0.51099999109E-03 0.  1.
       11   -1    0    0    0    0 -0.00000000000E+00 -0.00000000000E+00 -0.34996269501E-01  0.35000000000E-01  0.51099999109E-03 0. -1.
       22    1    1    2    0    0 -0.41020662848E-04  0.15697523858E-02 -0.34964707352E-01  0.34999950935E-01  0.00000000000E+00 0. -1.
       22    1    1    2    0    0  0.17465804252E-04 -0.85941180162E-04  0.17132199236E-02  0.17154630417E-02  0.00000000000E+00 0. -1.
       22    1    1    2    0    0  0.23554858596E-04 -0.14838112056E-02  0.33251487428E-01  0.33284586023E-01  0.00000000000E+00 0.  1.
</event>
<event>
 5   0  0.3490748E+06  0.9118800E+02  0.7546771E-02  0.1180000E+00
      -11   -1    0    0    0    0  0.00000000000E+00  0.00000000000E+00  0.34996269501E-01  0.35000000000E-01  0.51099999109E-03 0.  1.
       11   -1    0    0    0    0 -0.00000000000E+00 -0.00000000000E+00 -0.34996269501E-01  0.35000000000E-01  0.51099999109E-03 0. -1.
       22    1    1    2    0    0  0.95566481814E-03  0.81360774871E-03 -0.34951178891E-01  0.34973706676E-01  0.00000000000E+00 0. -1.
       22    1    1    2    0    0 -0.25499706342E-05 -0.55678256886E-04  0.18616239599E-05  0.55767699288E-04  0.00000000000E+00 0.  1.
       22    1    1    2    0    0 -0.95311484751E-03 -0.75792949182E-03  0.34949317267E-01  0.34970525624E-01  0.00000000000E+00 0.  1.
</event>
<event>
 5   0  0.3490748E+06  0.9118800E+02  0.7546771E-02  0.1180000E+00
      -11   -1    0    0    0    0  0.00000000000E+00  0.00000000000E+00  0.34996269501E-01  0.35000000000E-01  0.51099999109E-03 0.  1.
       11   -1    0    0    0    0 -0.00000000000E+00 -0.00000000000E+00 -0.34996269501E-01  0.35000000000E-01  0.51099999109E-03 0. -1.
       22    1    1    2    0    0  0.95072826775E-03  0.20346362099E-02 -0.34927840366E-01  0.34999966591E-01  0.00000000000E+00 0. -1.
       22    1    1    2    0    0 -0.95066141784E-03 -0.20346795535E-02  0.34927825380E-01  0.34999952340E-01  0.00000000000E+00 0.  1.
       22    1    1    2    0    0 -0.66849907853E-07  0.43343560650E-07  0.14985977653E-07  0.81068822343E-07  0.00000000000E+00 0.  1.
</event>
<event>
 5   0  0.3490748E+06  0.9118800E+02  0.7546771E-02  0.1180000E+00
      -11   -1    0    0    0    0  0.00000000000E+00  0.00000000000E+00  0.34996269501E-01  0.35000000000E-01  0.51099999109E-03 0.  1.
       11   -1    0    0    0    0 -0.00000000000E+00 -0.00000000000E+00 -0.34996269501E-01  0.35000000000E-01  0.51099999109E-03 0. -1.
       22    1    1    2    0    0 -0.36069943592E-06 -0.20472071374E-05 -0.80860830932E-06  0.22304727177E-05  0.00000000000E+00 0. -1.
       22    1    1    2    0    0 -0.33257851735E-02  0.31052400229E-01  0.15801413690E-01  0.34999958309E-01  0.00000000000E+00 0.  1.
       22    1    1    2    0    0  0.33261458729E-02 -0.31050353022E-01 -0.15800605082E-01  0.34997811219E-01  0.00000000000E+00 0. -1.
</event>
<event>
 5   0  0.3490748E+06  0.9118800E+02  0.7546771E-02  0.1180000E+00
      -11   -1    0    0    0    0  0.00000000000E+00  0.00000000000E+00  0.34996269501E-01  0.35000000000E-01  0.51099999109E-03 0.  1.
       11   -1    0    0    0    0 -0.00000000000E+00 -0.00000000000E+00 -0.34996269501E-01  0.35000000000E-01  0.51099999109E-03 0. -1.
       22    1    1    2    0    0 -0.39454953352E-03  0.59969309172E-03 -0.95452915055E-03  0.11943312095E-02  0.00000000000E+00 0. -1.
       22    1    1    2    0    0  0.12665420312E-02 -0.78598945254E-03  0.34858309231E-01  0.34890165241E-01  0.00000000000E+00 0.  1.
       22    1    1    2    0    0 -0.87199249771E-03  0.18629636082E-03 -0.33903780080E-01  0.33915503549E-01  0.00000000000E+00 0. -1.
</event>
<event>
 5   0  0.3490748E+06  0.9118800E+02  0.7546771E-02  0.1180000E+00
      -11   -1    0    0    0    0  0.00000000000E+00  0.00000000000E+00  0.34996269501E-01  0.35000000000E-01  0.51099999109E-03 0. -1.
       11   -1    0    0    0    0 -0.00000000000E+00 -0.00000000000E+00 -0.34996269501E-01  0.35000000000E-01  0.51099999109E-03 0.  1.
       22    1    1    2    0    0 -0.22042172613E-02 -0.13138305470E-02 -0.34905133143E-01  0.34999329196E-01  0.00000000000E+00 0.  1.
       22    1    1    2    0    0 -0.20110788169E-05 -0.90694109811E-06  0.14793743457E-05  0.26562245045E-05  0.00000000000E+00 0. -1.
       22    1    1    2    0    0  0.22062283402E-02  0.13147374881E-02  0.34903653768E-01  0.34998014580E-01  0.00000000000E+00 0. -1.
</event>
<event>
 5   0  0.3490748E+06  0.9118800E+02  0.7546771E-02  0.1180000E+00
      -11   -1    0    0    0    0  0.00000000000E+00  0.00000000000E+00  0.34996269501E-01  0.35000000000E-01  0.51099999109E-03 0. -1.
       11   -1    0    0    0    0 -0.00000000000E+00 -0.00000000000E+00 -0.34996269501E-01  0.35000000000E-01  0.51099999109E-03 0.  1.
       22    1    1    2    0    0 -0.12314750679E-01  0.68185547557E-03  0.32744760759E-01  0.34990532553E-01  0.00000000000E+00 0. -1.
       22    1    1    2    0    0  0.12323669837E-01 -0.66220823873E-03 -0.32737821628E-01  0.34986802125E-01  0.00000000000E+00 0.  1.
       22    1    1    2    0    0 -0.89191575458E-05 -0.19647236841E-04 -0.69391302566E-05  0.22665321871E-04  0.00000000000E+00 0.  1.
</event>
<event>
 5   0  0.3490748E+06  0.9118800E+02  0.7546771E-02  0.1180000E+00
      -11   -1    0    0    0    0  0.00000000000E+00  0.00000000000E+00  0.34996269501E-01  0.35000000000E-01  0.51099999109E-03 0.  1.
       11   -1    0    0    0    0 -0.00000000000E+00 -0.00000000000E+00 -0.34996269501E-01  0.35000000000E-01  0.51099999109E-03 0.  1.
       22    1    1    2    0    0  0.12966775722E-03  0.22924124668E-03  0.18422605950E-02  0.18609915036E-02  0.00000000000E+00 0.  1.
       22    1    1    2    0    0 -0.16508311434E-03  0.50171157856E-03 -0.34984601910E-01  0.34988588679E-01  0.00000000000E+00 0.  1.
       22    1    1    2    0    0  0.35415357121E-04 -0.73095282524E-03  0.33142341315E-01  0.33150419818E-01  0.00000000000E+00 0.  1.
</event>
