<event>
 5   0  0.8218731E+07  0.9118800E+02  0.7546771E-02  0.1180000E+00
      -11   -1    0    0    0    0  0.00000000000E+00  0.00000000000E+00  0.34996269501E-01  0.35000000000E-01  0.51099999109E-03 0. -1.
       11   -1    0    0    0    0 -0.00000000000E+00 -0.00000000000E+00 -0.34996269501E-01  0.35000000000E-01  0.51099999109E-03 0.  1.
       22    1    1    2    0    0 -0.50465788044E-02  0.14873181097E-02 -0.25501353493E-01  0.26038415903E-01  0.00000000000E+00 0.  1.
       22    1    1    2    0    0  0.15261371844E-02  0.31547240671E-03 -0.90507016208E-02  0.91838890114E-02  0.00000000000E+00 0. -1.
       22    1    1    2    0    0  0.35204416200E-02 -0.18027905164E-02  0.34552055114E-01  0.34777695085E-01  0.00000000000E+00 0. -1.
</event>
<event>
 5   0  0.8218731E+07  0.9118800E+02  0.7546771E-02  0.1180000E+00
      -11   -1    0    0    0    0  0.00000000000E+00  0.00000000000E+00  0.34996269501E-01  0.35000000000E-01  0.51099999109E-03 0. -1.
       11   -1    0    0    0    0 -0.00000000000E+00 -0.00000000000E+00 -0.34996269501E-01  0.35000000000E-01  0.51099999109E-03 0.  1.
       22    1    1    2    0    0  0.16713907074E-07  0.86178988078E-08  0.11329848192E-07  0.21954232612E-07  0.00000000000E+00 0. -1.
       22    1    1    2    0    0 -0.44092295004E-02 -0.26708773162E-03 -0.34720124716E-01  0.34999995728E-01  0.00000000000E+00 0.  1.
       22    1    1    2    0    0  0.44092127865E-02  0.26707911372E-03  0.34720113387E-01  0.34999982318E-01  0.00000000000E+00 0. -1.
</event>
<event>
 5   0  0.8218731E+07  0.9118800E+02  0.7546771E-02  0.1180000E+00
      -11   -1    0    0    0    0  0.00000000000E+00  0.00000000000E+00  0.34996269501E-01  0.35000000000E-01  0.51099999109E-03 0.  1.
       11   -1    0    0    0    0 -0.00000000000E+00 -0.00000000000E+00 -0.34996269501E-01  0.35000000000E-01  0.51099999109E-03 0. -1.
       22    1    1    2    0    0 -0.67860049242E-03 -0.94399105147E-03 -0.34446634444E-01  0.34466247871E-01  0.00000000000E+00 0. -1.
       22    1    1    2    0    0  0.44490034025E-03 -0.29689391713E-03 -0.39771698803E-03  0.66652915417E-03  0.00000000000E+00 0.  1.
       22    1    1    2    0    0  0.23370015217E-03  0.12408849686E-02  0.34844351432E-01  0.34867222975E-01  0.00000000000E+00 0.  1.
</event>
<event>
 5   0  0.8218731E+07  0.9118800E+02  0.7546771E-02  0.1180000E+00
      -11   -1    0    0    0    0  0.00000000000E+00  0.00000000000E+00  0.34996269501E-01  0.35000000000E-01  0.51099999109E-03 0.  1.
       11   -1    0    0    0    0 -0.00000000000E+00 -0.00000000000E+00 -0.34996269501E-01  0.35000000000E-01  0.51099999109E-03 0. -1.
       22    1    1    2    0    0 -0.83564671543E-02 -0.35791669124E-02  0.33798470509E-01  0.34999679824E-01  0.00000000000E+00 0.  1.
       22    1    1    2    0    0 -0.95472097053E-08 -0.56362388849E-08  0.32421656868E-06  0.32440607240E-06  0.00000000000E+00 0. -1.
       22    1    1    2    0    0  0.83564767015E-02  0.35791725486E-02 -0.33798794725E-01  0.34999995770E-01  0.00000000000E+00 0. -1.
</event>
<event>
 5   0  0.8218731E+07  0.9118800E+02  0.7546771E-02  0.1180000E+00
      -11   -1    0    0    0    0  0.00000000000E+00  0.00000000000E+00  0.34996269501E-01  0.35000000000E-01  0.51099999109E-03 0.  1.
       11   -1    0    0    0    0 -0.00000000000E+00 -0.00000000000E+00 -0.34996269501E-01  0.35000000000E-01  0.51099999109E-03 0. -1.
       22    1    1    2    0    0 -0.57782247561E-03 -0.64314620431E-02 -0.34399162544E-01  0.34999999522E-01  0.00000000000E+00 0. -1.
       22    1    1    2    0    0 -0.28293508687E-08  0.67001771208E-08  0.12817746926E-07  0.14737443335E-07  0.00000000000E+00 0.  1.
       22    1    1    2    0    0  0.57782530496E-03  0.64314553429E-02  0.34399149726E-01  0.34999985740E-01  0.00000000000E+00 0.  1.
</event>
<event>
 5   0  0.8218731E+07  0.9118800E+02  0.7546771E-02  0.1180000E+00
      -11   -1    0    0    0    0  0.00000000000E+00  0.00000000000E+00  0.34996269501E-01  0.35000000000E-01  0.51099999109E-03 0. -1.
       11   -1    0    0    0    0 -0.00000000000E+00 -0.00000000000E+00 -0.34996269501E-01  0.35000000000E-01  0.51099999109E-03 0.  1.
       22    1    1    2    0    0 -0.61103715757E-03 -0.15056355549E-02 -0.34962168907E-01  0.34999907993E-01  0.00000000000E+00 0.  1.
       22    1    1    2    0    0 -0.12813506113E-06  0.65994340518E-09 -0.45784230468E-07  0.13607066243E-06  0.00000000000E+00 0. -1.
       22    1    1    2    0    0  0.61116529263E-03  0.15056348950E-02  0.34962214691E-01  0.34999955937E-01  0.00000000000E+00 0. -1.
</event>
<event>
 5   0  0.8218731E+07  0.9118800E+02  0.7546771E-02  0.1180000E+00
      -11   -1    0    0    0    0  0.00000000000E+00  0.00000000000E+00  0.34996269501E-01  0.35000000000E-01  0.51099999109E-03 0.  1.
       11   -1    0    0    0    0 -0.00000000000E+00 -0.00000000000E+00 -0.34996269501E-01  0.35000000000E-01  0.51099999109E-03 0. -1.
       22    1    1    2    0    0 -0.46193601888E-03  0.24421186671E-03 -0.72795849106E-02  0.72983135581E-02  0.00000000000E+00 0. -1.
       22    1    1    2    0    0 -0.61646006712E-02 -0.58379795926E-02 -0.26499938231E-01  0.27826804226E-01  0.00000000000E+00 0. -1.
       22    1    1    2    0    0  0.66265366901E-02  0.55937677259E-02  0.33779523142E-01  0.34874882216E-01  0.00000000000E+00 0.  1.
</event>
<event>
 5   0  0.8218731E+07  0.9118800E+02  0.7546771E-02  0.1180000E+00
      -11   -1    0    0    0    0  0.00000000000E+00  0.00000000000E+00  0.34996269501E-01  0.35000000000E-01  0.51099999109E-03 0.  1.
       11   -1    0    0    0    0 -0.00000000000E+00 -0.00000000000E+00 -0.34996269501E-01  0.35000000000E-01  0.51099999109E-03 0. -1.
       22    1    1    2    0    0  0.11058369548E-08  0.15777323046E-09  0.39576468844E-09  0.11850727621E-08  0.00000000000E+00 0. -1.
       22    1    1    2    0    0 -0.59127561452E-02 -0.13462857919E-02 -0.34470665910E-01  0.34999999699E-01  0.00000000000E+00 0. -1.
       22    1    1    2    0    0  0.59127550393E-02  0.13462856341E-02  0.34470665514E-01  0.34999999116E-01  0.00000000000E+00 0.  1.
</event>
<event>
 5   0  0.8218731E+07  0.9118800E+02  0.7546771E-02  0.1180000E+00
      -11   -1    0    0    0    0  0.00000000000E+00  0.00000000000E+00  0.34996269501E-01  0.35000000000E-01  0.51099999109E-03 0.  1.
       11   -1    0    0    0    0 -0.00000000000E+00 -0.00000000000E+00 -0.34996269501E-01  0.35000000000E-01  0.51099999109E-03 0. -1.
       22    1    1    2    0    0 -0.22115589889E-04 -0.88273324535E-04 -0.10645375531E-03  0.14004885277E-03  0.00000000000E+00 0.  1.
       22    1    1    2    0    0 -0.22225117723E-03  0.15487578317E-02  0.34949974543E-01  0.34984979162E-01  0.00000000000E+00 0.  1.
       22    1    1    2    0    0  0.24436676712E-03 -0.14604845072E-02 -0.34843520788E-01  0.34874971985E-01  0.00000000000E+00 0. -1.
</event>
<event>
 5   0  0.8218731E+07  0.9118800E+02  0.7546771E-02  0.1180000E+00
      -11   -1    0    0    0    0  0.00000000000E+00  0.00000000000E+00  0.34996269501E-01  0.35000000000E-01  0.51099999109E-03 0.  1.
       11   -1    0    0    0    0 -0.00000000000E+00 -0.00000000000E+00 -0.34996269501E-01  0.35000000000E-01  0.51099999109E-03 0. -1.
       22    1    1    2    0    0  0.23979090014E-07 -0.79747912157E-08  0.33274613380E-06  0.33370433562E-06  0.00000000000E+00 0.  1.
       22    1    1    2    0    0 -0.77022759260E-03 -0.21167631496E-03 -0.34990883424E-01  0.34999999717E-01  0.00000000000E+00 0. -1.
       22    1    1    2    0    0  0.77020361351E-03  0.21168428975E-03  0.34990550678E-01  0.34999666578E-01  0.00000000000E+00 0.  1.
</event>
<event>
 5   0  0.8218731E+07  0.9118800E+02  0.7546771E-02  0.1180000E+00
      -11   -1    0    0    0    0  0.00000000000E+00  0.00000000000E+00  0.34996269501E-01  0.35000000000E-01  0.51099999109E-03 0.  1.
       11   -1    0    0    0    0 -0.00000000000E+00 -0.00000000000E+00 -0.34996269501E-01  0.35000000000E-01  0.51099999109E-03 0. -1.
       22    1    1    2    0    0  0.55984530793E-04 -0.91589085454E-04 -0.53616473556E-03  0.54680476581E-03  0.00000000000E+00 0. -1.
       22    1    1    2    0    0  0.10283058461E-02 -0.34445495044E-01 -0.36181545548E-02  0.34650260953E-01  0.00000000000E+00 0. -1.
       22    1    1    2    0    0 -0.10842903769E-02  0.34537084130E-01  0.41543192904E-02  0.34802934281E-01  0.00000000000E+00 0.  1.
</event>
<event>
 5   0  0.8218731E+07  0.9118800E+02  0.7546771E-02  0.1180000E+00
      -11   -1    0    0    0    0  0.00000000000E+00  0.00000000000E+00  0.34996269501E-01  0.35000000000E-01  0.51099999109E-03 0. -1.
       11   -1    0    0    0    0 -0.00000000000E+00 -0.00000000000E+00 -0.34996269501E-01  0.35000000000E-01  0.51099999109E-03 0.  1.
       22    1    1    2    0    0  0.94817432149E-05 -0.10173185476E-03 -0.23094838070E-02  0.23117427903E-02  0.00000000000E+00 0.  1.
       22    1    1    2    0    0 -0.15960508851E-01  0.10757794831E-01  0.29007972451E-01  0.34812791588E-01  0.00000000000E+00 0. -1.
       22    1    1    2    0    0  0.15951027108E-01 -0.10656062976E-01 -0.26698488644E-01  0.32875465622E-01  0.00000000000E+00 0.  1.
</event>
<event>
 5   0  0.8218731E+07  0.9118800E+02  0.7546771E-02  0.1180000E+00
      -11   -1    0    0    0    0  0.00000000000E+00  0.00000000000E+00  0.34996269501E-01  0.35000000000E-01  0.51099999109E-03 0.  1.
       11   -1    0    0    0    0 -0.00000000000E+00 -0.00000000000E+00 -0.34996269501E-01  0.35000000000E-01  0.51099999109E-03 0. -1.
       22    1    1    2    0    0 -0.19169383957E-02 -0.32035021950E-03  0.24861380879E-01  0.24937231929E-01  0.00000000000E+00 0.  1.
       22    1    1    2    0    0 -0.12209620645E-01  0.81274704243E-02  0.86457348862E-03  0.14692790719E-01  0.00000000000E+00 0.  1.
       22    1    1    2    0    0  0.14126559041E-01 -0.78071202048E-02 -0.25725954368E-01  0.30369977352E-01  0.00000000000E+00 0. -1.
</event>
<event>
 5   0  0.8218731E+07  0.9118800E+02  0.7546771E-02  0.1180000E+00
      -11   -1    0    0    0    0  0.00000000000E+00  0.00000000000E+00  0.34996269501E-01  0.35000000000E-01  0.51099999109E-03 0. -1.
       11   -1    0    0    0    0 -0.00000000000E+00 -0.00000000000E+00 -0.34996269501E-01  0.35000000000E-01  0.51099999109E-03 0. -1.
       22    1    1    2    0    0  0.73872664322E-05 -0.25038091230E-05  0.41714317908E-05  0.88454286866E-05  0.00000000000E+00 0. -1.
       22    1    1    2    0    0 -0.51059003365E-03  0.20364012541E-03  0.34989234767E-01  0.34993552564E-01  0.00000000000E+00 0. -1.
       22    1    1    2    0    0  0.50320276722E-03 -0.20113631628E-03 -0.34993406199E-01  0.34997602007E-01  0.00000000000E+00 0. -1.
</event>
<event>
 5   0  0.8218731E+07  0.9118800E+02  0.7546771E-02  0.1180000E+00
      -11   -1    0    0    0    0  0.00000000000E+00  0.00000000000E+00  0.34996269501E-01  0.35000000000E-01  0.51099999109E-03 0. -1.
       11   -1    0    0    0    0 -0.00000000000E+00 -0.00000000000E+00 -0.34996269501E-01  0.35000000000E-01  0.51099999109E-03 0.  1.
       22    1    1    2    0    0  0.12063692157E-02  0.16772290527E-02  0.10428561151E-03  0.20686467724E-02  0.00000000000E+00 0. -1.
       22    1    1    2    0    0  0.84011174700E-03 -0.26934982421E-03  0.33862435394E-01  0.33873926077E-01  0.00000000000E+00 0. -1.
       22    1    1    2    0    0 -0.20464809627E-02 -0.14078792285E-02 -0.33966721005E-01  0.34057427150E-01  0.00000000000E+00 0.  1.
</event>
