<event>
 5   0  0.8697291E+07  0.9118800E+02  0.7546771E-02  0.1180000E+00
      -11   -1    0    0    0    0  0.00000000000E+00  0.00000000000E+00  0.34996269501E-01  0.35000000000E-01  0.51099999109E-03 0.  1.
       11   -1    0    0    0    0 -0.00000000000E+00 -0.00000000000E+00 -0.34996269501E-01  0.35000000000E-01  0.51099999109E-03 0. -1.
       22    1    1    2    0    0  0.15282386077E-08  0.22707839171E-09  0.25427448187E-07  0.25474343940E-07  0.00000000000E+00 0.  1.
       22    1    1    2    0    0  0.59054942383E-02  0.48566070124E-02  0.34154600509E-01  0.34999974712E-01  0.00000000000E+00 0.  1.
       22    1    1    2    0    0 -0.59054957666E-02 -0.48566072395E-02 -0.34154625937E-01  0.34999999814E-01  0.00000000000E+00 0. -1.
</event>
<event>
 5   0  0.8697291E+07  0.9118800E+02  0.7546771E-02  0.1180000E+00
      -11   -1    0    0    0    0  0.00000000000E+00  0.00000000000E+00  0.34996269501E-01  0.35000000000E-01  0.51099999109E-03 0. -1.
       11   -1    0    0    0    0 -0.00000000000E+00 -0.00000000000E+00 -0.34996269501E-01  0.35000000000E-01  0.51099999109E-03 0.  1.
       22    1    1    2    0    0  0.83702080780E-02 -0.24223010415E-01 -0.23836621168E-01  0.34999987508E-01  0.00000000000E+00 0.  1.
       22    1    1    2    0    0 -0.83701469143E-02  0.24222996668E-01  0.23836526132E-01  0.34999898643E-01  0.00000000000E+00 0. -1.
       22    1    1    2    0    0 -0.61163691699E-07  0.13747048094E-07  0.95035638880E-07  0.11384968674E-06  0.00000000000E+00 0.  1.
</event>
<event>
 5   0  0.8697291E+07  0.9118800E+02  0.7546771E-02  0.1180000E+00
      -11   -1    0    0    0    0  0.00000000000E+00  0.00000000000E+00  0.34996269501E-01  0.35000000000E-01  0.51099999109E-03 0. -1.
       11   -1    0    0    0    0 -0.00000000000E+00 -0.00000000000E+00 -0.34996269501E-01  0.35000000000E-01  0.51099999109E-03 0. -1.
       22    1    1    2    0    0  0.45521866297E-10  0.53981127105E-10 -0.35002362300E-01  0.34999985469E-01  0.00000000000E+00 0. -1.
       22    1    1    2    0    0  0.52153601872E-06  0.61845228253E-06  0.10967405352E-04  0.10997202517E-04  0.00000000000E+00 0. -1.
       22    1    1    2    0    0 -0.52158154058E-06 -0.61850626366E-06  0.34991394894E-01  0.34989017328E-01  0.00000000000E+00 0. -1.
</event>
<event>
 5   0  0.8697291E+07  0.9118800E+02  0.7546771E-02  0.1180000E+00
      -11   -1    0    0    0    0  0.00000000000E+00  0.00000000000E+00  0.34996269501E-01  0.35000000000E-01  0.51099999109E-03 0. -1.
       11   -1    0    0    0    0 -0.00000000000E+00 -0.00000000000E+00 -0.34996269501E-01  0.35000000000E-01  0.51099999109E-03 0.  1.
       22    1    1    2    0    0 -0.17696669775E-02  0.10403406836E-02  0.34939716336E-01  0.34999968680E-01  0.00000000000E+00 0. -1.
       22    1    1    2    0    0  0.17696749097E-02 -0.10403555140E-02 -0.34939744973E-01  0.34999998110E-01  0.00000000000E+00 0.  1.
       22    1    1    2    0    0 -0.79322420546E-08  0.14830376033E-07  0.28637366155E-07  0.33210830426E-07  0.00000000000E+00 0. -1.
</event>
<event>
 5   0  0.8697291E+07  0.9118800E+02  0.7546771E-02  0.1180000E+00
      -11   -1    0    0    0    0  0.00000000000E+00  0.00000000000E+00  0.34996269501E-01  0.35000000000E-01  0.51099999109E-03 0. -1.
       11   -1    0    0    0    0 -0.00000000000E+00 -0.00000000000E+00 -0.34996269501E-01  0.35000000000E-01  0.51099999109E-03 0.  1.
       22    1    1    2    0    0 -0.46672070123E-03  0.94023150553E-03  0.24446526156E-02  0.26604867803E-02  0.00000000000E+00 0. -1.
       22    1    1    2    0    0 -0.14119772257E-02 -0.89104211180E-02 -0.33773769598E-01  0.34957928958E-01  0.00000000000E+00 0.  1.
       22    1    1    2    0    0  0.18786979269E-02  0.79701896124E-02  0.31329116983E-01  0.32381584261E-01  0.00000000000E+00 0. -1.
</event>
<event>
 5   0  0.8697291E+07  0.9118800E+02  0.7546771E-02  0.1180000E+00
      -11   -1    0    0    0    0  0.00000000000E+00  0.00000000000E+00  0.34996269501E-01  0.35000000000E-01  0.51099999109E-03 0. -1.
       11   -1    0    0    0    0 -0.00000000000E+00 -0.00000000000E+00 -0.34996269501E-01  0.35000000000E-01  0.51099999109E-03 0.  1.
       22    1    1    2    0    0  0.24601940602E-01  0.13184342008E-01  0.21116761668E-01  0.34999999698E-01  0.00000000000E+00 0. -1.
       22    1    1    2    0    0  0.41553996334E-10  0.31922119393E-09  0.15844218655E-09  0.35879357818E-09  0.00000000000E+00 0.  1.
       22    1    1    2    0    0 -0.24601940643E-01 -0.13184342327E-01 -0.21116761826E-01  0.34999999943E-01  0.00000000000E+00 0.  1.
</event>
<event>
 5   0  0.8697291E+07  0.9118800E+02  0.7546771E-02  0.1180000E+00
      -11   -1    0    0    0    0  0.00000000000E+00  0.00000000000E+00  0.34996269501E-01  0.35000000000E-01  0.51099999109E-03 0.  1.
       11   -1    0    0    0    0 -0.00000000000E+00 -0.00000000000E+00 -0.34996269501E-01  0.35000000000E-01  0.51099999109E-03 0. -1.
       22    1    1    2    0    0  0.76916009111E-02  0.13598573258E-01  0.31309178615E-01  0.34990664251E-01  0.00000000000E+00 0.  1.
       22    1    1    2    0    0  0.14171347732E-04  0.33531064060E-05 -0.35369957246E-06  0.14566932502E-04  0.00000000000E+00 0.  1.
       22    1    1    2    0    0 -0.77057722588E-02 -0.13601926365E-01 -0.31308824915E-01  0.34994768816E-01  0.00000000000E+00 0. -1.
</event>
<event>
 5   0  0.8697291E+07  0.9118800E+02  0.7546771E-02  0.1180000E+00
      -11   -1    0    0    0    0  0.00000000000E+00  0.00000000000E+00  0.34996269501E-01  0.35000000000E-01  0.51099999109E-03 0.  1.
       11   -1    0    0    0    0 -0.00000000000E+00 -0.00000000000E+00 -0.34996269501E-01  0.35000000000E-01  0.51099999109E-03 0. -1.
       22    1    1    2    0    0  0.51410688745E-02  0.36126745089E-02 -0.34431349796E-01  0.34999997930E-01  0.00000000000E+00 0. -1.
       22    1    1    2    0    0 -0.51409589913E-02 -0.36126708034E-02  0.34430908770E-01  0.34999547546E-01  0.00000000000E+00 0.  1.
       22    1    1    2    0    0 -0.10988318662E-06 -0.37055137687E-08  0.44102629357E-06  0.45452418765E-06  0.00000000000E+00 0. -1.
</event>
<event>
 5   0  0.8697291E+07  0.9118800E+02  0.7546771E-02  0.1180000E+00
      -11   -1    0    0    0    0  0.00000000000E+00  0.00000000000E+00  0.34996269501E-01  0.35000000000E-01  0.51099999109E-03 0. -1.
       11   -1    0    0    0    0 -0.00000000000E+00 -0.00000000000E+00 -0.34996269501E-01  0.35000000000E-01  0.51099999109E-03 0.  1.
       22    1    1    2    0    0  0.54135590032E-02 -0.52328195638E-02 -0.34180558211E-01  0.34999994019E-01  0.00000000000E+00 0.  1.
       22    1    1    2    0    0  0.23845367342E-07  0.43340998569E-07  0.90518116001E-07  0.10315315325E-06  0.00000000000E+00 0.  1.
       22    1    1    2    0    0 -0.54135828485E-02  0.52327762228E-02  0.34180467693E-01  0.34999902828E-01  0.00000000000E+00 0. -1.
</event>
<event>
 5   0  0.8697291E+07  0.9118800E+02  0.7546771E-02  0.1180000E+00
      -11   -1    0    0    0    0  0.00000000000E+00  0.00000000000E+00  0.34996269501E-01  0.35000000000E-01  0.51099999109E-03 0.  1.
       11   -1    0    0    0    0 -0.00000000000E+00 -0.00000000000E+00 -0.34996269501E-01  0.35000000000E-01  0.51099999109E-03 0. -1.
       22    1    1    2    0    0 -0.53458276084E-03 -0.85589100205E-03  0.55786138791E-02  0.56691499317E-02  0.00000000000E+00 0.  1.
       22    1    1    2    0    0  0.77341980552E-03 -0.99687710273E-02  0.27639635173E-01  0.29392584209E-01  0.00000000000E+00 0.  1.
       22    1    1    2    0    0 -0.23883704469E-03  0.10824662029E-01 -0.33218249052E-01  0.34938265859E-01  0.00000000000E+00 0. -1.
</event>
<event>
 5   0  0.8697291E+07  0.9118800E+02  0.7546771E-02  0.1180000E+00
      -11   -1    0    0    0    0  0.00000000000E+00  0.00000000000E+00  0.34996269501E-01  0.35000000000E-01  0.51099999109E-03 0. -1.
       11   -1    0    0    0    0 -0.00000000000E+00 -0.00000000000E+00 -0.34996269501E-01  0.35000000000E-01  0.51099999109E-03 0. -1.
       22    1    1    2    0    0 -0.76744781579E-03 -0.57974401095E-03 -0.34986778902E-01  0.34999996818E-01  0.00000000000E+00 0. -1.
       22    1    1    2    0    0  0.76745752124E-03  0.57973600420E-03  0.34986769441E-01  0.34999987440E-01  0.00000000000E+00 0. -1.
       22    1    1    2    0    0 -0.97054454336E-08  0.80067472056E-08  0.94609216456E-08  0.15742068170E-07  0.00000000000E+00 0. -1.
</event>
<event>
 5   0  0.8697291E+07  0.9118800E+02  0.7546771E-02  0.1180000E+00
      -11   -1    0    0    0    0  0.00000000000E+00  0.00000000000E+00  0.34996269501E-01  0.35000000000E-01  0.51099999109E-03 0.  1.
       11   -1    0    0    0    0 -0.00000000000E+00 -0.00000000000E+00 -0.34996269501E-01  0.35000000000E-01  0.51099999109E-03 0. -1.
       22    1    1    2    0    0  0.45611336934E-04  0.33995844600E-05 -0.50534586381E-04  0.68159340168E-04  0.00000000000E+00 0. -1.
       22    1    1    2    0    0  0.12374026458E-02 -0.28416750265E-02  0.34852863222E-01  0.34990403785E-01  0.00000000000E+00 0.  1.
       22    1    1    2    0    0 -0.12830139828E-02  0.28382754421E-02 -0.34802328636E-01  0.34941436874E-01  0.00000000000E+00 0. -1.
</event>
